42
 energy: -62.178055587748 gnorm: 0.114177594877 xtb: 6.5.1 (579679a)
C           25.36691944000000       41.29769648000000       40.66884824000000
C           25.70691944000000       40.13769648000000       39.97884824000000
C           24.89691944000000       38.98769647999999       40.03884823999999
C           23.81691944000000       39.04769648000000       40.92884824000000
C           23.38691944000000       40.20769648000000       41.64884824000000
C           24.25691944000000       41.35769648000000       41.50884824000000
O           22.20691944000000       40.27769648000000       42.38884823999999
O           23.97691944000000       42.55769648000000       42.12884824000000
C           25.16691944000000       37.79769647999999       39.14884824000000
C           25.34691944000000       38.16769648000000       37.64884824000000
N           26.27000000000000       37.10999999999999       37.12000000000000
H           25.95691944000000       42.18769648000000       40.46884824000000
H           26.51691944000000       40.12769648000000       39.24884824000000
H           23.22691944000000       38.15769647999999       41.08884823999999
H           22.20691944000000       41.18769648000000       42.70884824000000
H           24.70691944000000       43.19769648000000       41.97884824000000
H           26.17691944000000       37.47769648000000       39.42884823999999
H           24.49691944000000       36.94769648000000       39.31884823999999
H           25.91691944000000       39.08769648000000       37.46884823999999
H           24.38691944000000       38.17769648000000       37.12884824000000
H           25.76332293000000       36.25674426000000       36.99657800999999
C           26.82251843000000       37.54299898000000       35.82843689000000
H           26.03318933000000       37.91633945000000       35.20999007000000
O           27.44989745000000       36.43241895000000       35.18197919000000
H           27.77028955000000       36.70338829000000       34.31854157000000
C           27.86175174000000       38.65529491000000       36.06165757000000
H           27.36440214000000       39.60058861000000       36.12461133000000
C           28.61751337000000       38.38435162000000       37.37581666000000
H           29.67116591000000       38.44954666000000       37.20127172000000
H           28.33165433000000       39.11048349000000       38.10788026000000
H           28.37482674000000       37.40477193000000       37.73138217999999
C           28.86103461000000       38.67801745999999       34.89011268000000
C           28.54163774000000       39.35621972999999       33.71385784000000
C           30.08613427000000       38.02059396999999       35.00559025000000
C           29.44717879000000       39.37686690000000       32.65270727000000
H           27.57620527000000       39.87468629000000       33.62288857000000
C           30.99130990000000       38.04079409999999       33.94455959999999
H           30.33786388000000       37.48628894000000       35.93328878000000
C           30.67153554000000       38.71886478000000       32.76762244000000
H           29.19475293000000       39.91098974000000       31.72521832000000
H           31.95675597000000       37.52210473000000       34.03495633000000
H           31.38508194000000       38.73456681999999       31.93102129000000
42
 energy: -62.202587453660 gnorm: 0.046930884070 xtb: 6.5.1 (579679a)
C           25.36276924946354       41.29617801503952       40.64873292450742
C           25.67659062116892       40.15078132801445       39.94352388984069
C           24.87555728849370       39.01333261311281       40.03325195111936
C           23.79957881462568       39.06166529528494       40.91627056240031
C           23.43039339103106       40.21676551082940       41.62222405818698
C           24.25787019263289       41.35515591068337       41.48136015766885
O           22.28165646830949       40.26376004879016       42.37721923762260
O           23.95799879567942       42.52853490465203       42.14096292675784
C           25.20127834710873       37.81755494506019       39.17316481620404
C           25.34777336129023       38.13185977532046       37.66845082025121
N           26.25688818383439       37.11777061353475       37.08748452840555
H           25.97346446138522       42.18010618874120       40.50073725936326
H           26.52766820548118       40.13456732741105       39.27204020303474
H           23.19543882469024       38.17733282898185       41.06869150367205
H           22.21723841548606       41.17505104996106       42.69862592107617
H           24.66797369582347       43.17326095608159       41.98613164537902
H           26.19330198394385       37.45785640566850       39.46457845337241
H           24.49314481150779       36.99853927282745       39.31532579183201
H           25.86030601531675       39.08414649932989       37.52764253636004
H           24.38417884175947       38.16946545554097       37.15010227418057
H           25.76502757847721       36.24324383876836       36.96871002517953
C           26.82870964809874       37.54591312114123       35.81499249793424
H           26.03440534396603       37.93303508088760       35.16700705209015
O           27.40887222521762       36.40765540679552       35.19890252968907
H           27.76683636451193       36.67888382942105       34.34532252227839
C           27.89519045288141       38.64816149680503       36.06179930558806
H           27.38427363486572       39.60694790527730       36.09889025454433
C           28.61418774627870       38.40325477953252       37.40135220811939
H           29.68056193382598       38.49710920575934       37.27544280164780
H           28.30266276412467       39.12223187667892       38.14320235511268
H           28.38140191030773       37.40590484454007       37.74787772275510
C           28.87407761615820       38.68035896502530       34.89136895113580
C           28.55190492307101       39.35188099280298       33.71604852581005
C           30.09170914930741       38.01024115961768       34.97368953259678
C           29.44739166874300       39.37278403074754       32.65524410865235
H           27.59755457065481       39.86613582046252       33.62935795774712
C           30.98846500133025       38.04150048078277       33.92269379033314
H           30.34901323748529       37.45283046055410       35.86643808400938
C           30.66827417966328       38.72333264871504       32.76045535517283
H           29.19543840281849       39.90490140593892       31.74236854819468
H           31.94240294770996       37.53070571522122       34.01602210961826
H           31.37206085147046       38.74245571965911       31.93437768055545
42
 energy: -62.209964054437 gnorm: 0.019139046126 xtb: 6.5.1 (579679a)
C           25.37168247230684       41.30050603947291       40.63054116206632
C           25.66902059097300       40.15948898798158       39.91613036090695
C           24.86699123291164       39.02970789257761       40.01185887039040
C           23.78145094270170       39.06932766567989       40.87734528176575
C           23.45486883257011       40.22177604873080       41.57864387850892
C           24.26349849086283       41.35020289423487       41.45484660058978
O           22.33669380038372       40.25347880679070       42.35671640214061
O           23.93166796692675       42.49421645907609       42.15262205588783
C           25.21725707163620       37.81799721993428       39.18582702782059
C           25.35320204752945       38.11983336214194       37.68358251369327
N           26.24239245786982       37.13482947226682       37.07502590364280
H           25.99759714010778       42.18133075601251       40.52924449957069
H           26.53939565519908       40.14872419050142       39.27794039353642
H           23.16196416204693       38.19522929449025       41.02180358140338
H           22.25589647007227       41.15146273164879       42.71153788683708
H           24.61897449129177       43.15290858634200       42.00026688885409
H           26.19433819359177       37.44221515565471       39.50136270161921
H           24.48543347751253       37.02216986300720       39.33552456891691
H           25.82352504740896       39.09585655450648       37.55347941895302
H           24.37352459265032       38.16260606285651       37.18712846588608
H           25.76936339365505       36.24417539111437       36.95567698695913
C           26.82750467025638       37.54992713553496       35.81698689823229
H           26.05049928699648       37.96690771919147       35.13496789179709
O           27.36489965179528       36.38778881630099       35.22808311639390
H           27.77821575289493       36.65233874164183       34.39204622558941
C           27.91613861450533       38.64382340325896       36.06416748456559
H           27.39616631367269       39.60956880921215       36.07983420401352
C           28.61918999546292       38.41749096917479       37.41165270783724
H           29.69494724493645       38.55217130940391       37.32526802218867
H           28.26504700901135       39.12240413583603       38.15901079801728
H           28.40970664631610       37.40846370861077       37.75710324496774
C           28.87903250469479       38.66790961737835       34.89695545951425
C           28.55854733839057       39.34633858940892       33.72560796220469
C           30.09370563922067       37.99149308775186       34.95528517887168
C           29.44371993855027       39.37247391399857       32.66017798721334
H           27.61315521713703       39.86395080661488       33.64624235471781
C           30.98577847007453       38.03503001169233       33.90285776871972
H           30.35394027302149       37.42240180496182       35.83053005486628
C           30.66432823130294       38.72749863817643       32.75013393925599
H           29.18469665514559       39.90350252360411       31.75710792750242
H           31.93294956049989       37.52612218414004       33.98983823278169
H           31.36058457590580       38.75750436908511       31.92712247080001
42
 energy: -62.212263366626 gnorm: 0.014967333164 xtb: 6.5.1 (579679a)
C           25.37968857744838       41.31293966711925       40.62232776952840
C           25.67653244073354       40.16988968010927       39.90785038708918
C           24.87154383061149       39.04110906530226       39.99503236088582
C           23.77078149380250       39.07469022210883       40.83999473146770
C           23.45703450880684       40.22136231295327       41.55385068545799
C           24.26442474650308       41.35264265286459       41.43933281735404
O           22.35708086679255       40.23966201877989       42.35410121839386
O           23.91056711112762       42.47533657164586       42.16216529756071
C           25.22123698318643       37.81805665551870       39.19008427193192
C           25.34441448853349       38.11671627777330       37.68821648724168
N           26.23190343721669       37.15085050442561       37.07054145073648
H           26.01437424065253       42.18908763133303       40.54571050741897
H           26.55775664236569       40.16122827969601       39.28614297893389
H           23.13520391960607       38.21019696612839       40.96372699764773
H           22.27783673393717       41.12696227815354       42.73349613219594
H           24.58023015461490       43.15169170664012       42.01501546666754
H           26.19161530001522       37.43899609914599       39.51985618098137
H           24.48126989511018       37.03350140459635       39.35323544963951
H           25.79260980473634       39.10301527442675       37.55811070775049
H           24.34959659964750       38.15127425503195       37.21490237567580
H           25.77697935933972       36.25090418700648       36.94921983502390
C           26.83080396837883       37.55286111389671       35.82237672629910
H           26.07360338503218       37.98947503228255       35.11865911234209
O           27.34710666187058       36.37532250640763       35.25445739977098
H           27.80271749546242       36.62224317331169       34.43347281592862
C           27.93282271280551       38.63976702727762       36.06878649203102
H           27.41234575406547       39.60656030300765       36.07346083310128
C           28.62256573265763       38.42949754853759       37.42371612183086
H           29.69705278732507       38.61221056451281       37.36171988356079
H           28.22308202472855       39.11360022553916       38.17308204737459
H           28.44898025695318       37.41024994336259       37.76395309672654
C           28.88932038043855       38.65364741435593       34.90105235962640
C           28.56475997152969       39.34473112309342       33.73724799598087
C           30.09904400354361       37.96468245405789       34.93774683032213
C           29.43777629793873       39.37652298413163       32.66278109181560
H           27.62297900097176       39.87101682520552       33.67151888497418
C           30.98379199803468       38.01872480639650       33.87718433265120
H           30.36044784355418       37.37589484989702       35.80142866528155
C           30.65886239053478       38.72915575398781       32.73497964527307
H           29.17003735493914       39.91815046107910       31.76831737018523
H           31.92989218424806       37.50547812449157       33.95069070799416
H           31.35081878019952       38.77324778440767       31.90853885734652
42
 energy: -62.213504338854 gnorm: 0.012502766440 xtb: 6.5.1 (579679a)
C           25.38330407597439       41.32496012856560       40.62712574483077
C           25.68634437930729       40.18094511996983       39.91315184920655
C           24.87650790855090       39.05481360542854       39.98338565062078
C           23.75993280611313       39.08481757749362       40.80692454218022
C           23.45009705213833       40.22180570976366       41.53742312155745
C           24.26200431069823       41.35519744576717       41.43658804226303
O           22.35947840563243       40.23025784251606       42.34702264100166
O           23.88994806028680       42.46168137604915       42.17318426209041
C           25.22364703529040       37.82550146311218       39.19127826814307
C           25.33141663744588       38.11593277825584       37.68676934656124
N           26.22557338615186       37.16480932192472       37.06887162573374
H           26.01948583522699       42.19764664404033       40.56212804440987
H           26.57660460470934       40.17313120516294       39.30368756526977
H           23.11191013375024       38.22755147245853       40.90701595793823
H           22.29249414047073       41.10599352283492       42.75346058972990
H           24.54298493526865       43.15576554153854       42.03207325052089
H           26.19257703298155       37.44760804937824       39.52387442852425
H           24.48255709996634       37.04629758094698       39.36790676205213
H           25.75916862750070       39.11003491262785       37.54936784101554
H           24.32550763644905       38.13152167065326       37.23248382461212
H           25.79128059807757       36.25514007960289       36.94982391621911
C           26.83695030794930       37.55370474220393       35.82797953721426
H           26.09693111753911       37.99814044229208       35.10783009335358
O           27.34396190254155       36.36614761436895       35.28019628548299
H           27.83530041055608       36.59130824637629       34.47493168922600
C           27.94537392696765       38.63693560759061       36.07288908523418
H           27.42931536460052       39.60446712336203       36.07361962705435
C           28.63553020698000       38.43307448090580       37.42500711073027
H           29.70032363134695       38.66909054235849       37.36791959280516
H           28.19607373334232       39.08656643996932       38.18140437957321
H           28.50841159594111       37.40212516616751       37.75484080384472
C           28.89823630060312       38.64215392985349       34.90454445091849
C           28.57080851465432       39.34950902367393       33.75080282951832
C           30.09998438173069       37.93863351971277       34.92396165749668
C           29.43205524401147       39.38592932694961       32.66808883894805
H           27.63302657643029       39.88660829552339       33.70134609549011
C           30.97508337569915       37.99734067604442       33.85325399532829
H           30.36216884593812       37.33986265352982       35.78200763031592
C           30.64866734517358       38.72718854637053       32.72253360240809
H           29.15745657489822       39.94018476475749       31.78219171202145
H           31.91781945993471       37.47266181342820       33.90836419279360
H           31.33518860117089       38.78010772646995       31.89082489576120
42
 energy: -62.214475106418 gnorm: 0.012565422406 xtb: 6.5.1 (579679a)
C           25.38056828123285       41.33642860876463       40.64062766901802
C           25.69339062318066       40.19341380455067       39.92538161820846
C           24.87930660187056       39.06989491172586       39.97606422565646
C           23.74854472541347       39.09825681892470       40.78036659745378
C           23.43500183375812       40.22461675760967       41.52522260766519
C           24.25322306228659       41.35894614859225       41.44092787796959
O           22.34640371415961       40.22497350282902       42.33456091683651
O           23.87146703680968       42.45207341825181       42.18905442429099
C           25.22625250939679       37.83859719677638       39.18988575124988
C           25.31755810159557       38.11870936567789       37.68084521861852
N           26.22558158623533       37.17811875319553       37.07181633550101
H           26.02012156956230       42.20647609048949       40.58744251664069
H           26.59154486014714       40.18578219496627       39.32639482447760
H           23.09216173162824       38.24568099972423       40.85616712425324
H           22.29659695100745       41.08931401592553       42.76725349890677
H           24.51003972739792       43.16070141000621       42.05410551794169
H           26.19951330694576       37.46853813496915       39.51608348349356
H           24.49138973864976       37.05782269677039       39.38053629330240
H           25.72395453093674       39.12010194558517       37.52972546530591
H           24.30598688142122       38.10599642421893       37.23862836214720
H           25.81322830802119       36.25814786238312       36.96130481315128
C           26.84714184998161       37.55304292974392       35.83420494093416
H           26.12090991822453       37.99528944796207       35.10130016818228
O           27.35259984307102       36.35775163734159       35.30703707461124
H           27.88000647746988       36.56170622922188       34.52080052851241
C           27.95758744769148       38.63408869612218       36.07643093411391
H           27.44653652948878       39.60184878364316       36.07911373528884
C           28.65301994389143       38.42955416692997       37.42332200243784
H           29.70349002122136       38.72524756473197       37.36829378533255
H           28.17474226033216       39.03900926025144       38.19380668863077
H           28.58071061023716       37.38474559582105       37.73090822259090
C           28.90548399733880       38.63502001583902       34.90427091013500
C           28.57636597744265       39.36069637160732       33.76217041874292
C           30.09698204363452       37.91472233978692       34.90774971490981
C           29.42659897826422       39.39943552943998       32.67186696907091
H           27.64434700645865       39.91084241095947       33.73133558165877
C           30.96036647884555       37.97210607541829       33.82638451626400
H           30.35859949496304       37.30736394844089       35.76109670749345
C           30.63382031017039       38.72063421945158       32.70783521246636
H           29.15011009436701       39.97049898349427       31.79631904318956
H           31.89664293666842       37.43135352348069       33.86138400618118
H           31.31359421858044       38.77560493837513       31.87005907716388
42
 energy: -62.215455661688 gnorm: 0.013049361960 xtb: 6.5.1 (579679a)
C           25.37312232670302       41.34678439926643       40.66326130395162
C           25.69544744784208       40.20840631919436       39.94173953935493
C           24.87731031705783       39.08777651936862       39.97109241647117
C           23.73427377520740       39.11465314703812       40.75837333122733
C           23.41352044112345       40.23013113239666       41.51550026930201
C           24.23900502079007       41.36328183595803       41.45216583961106
O           22.31993515948354       40.22399707334980       42.31629592465738
O           23.85387584750502       42.44496203610750       42.21168241771032
C           25.22987956050070       37.85778831053472       39.18677115922846
C           25.30413616252492       38.12346914449294       37.67242100231584
N           26.23205725582811       37.19094463563225       37.07941955528617
H           26.01481796626859       42.21564934461312       40.62159603061286
H           26.60007599292526       40.20183716610248       39.35224630613197
H           23.07445169082398       38.26386527524203       40.81120018002847
H           22.28803353140302       41.07691542257152       42.77291228563568
H           24.48027463967199       43.16459789684153       42.08288048878852
H           26.21258556811163       37.50197931465949       39.50091321834826
H           24.50752262447332       37.06898382646568       39.39099614687756
H           25.68700833296628       39.13184380255887       37.50403348577586
H           24.29186279123025       38.07688627891084       37.23577767562607
H           25.84230627006842       36.26034965043107       36.98439449452446
C           26.86099738010162       37.55084863398169       35.84129899872033
H           26.14499299232794       37.98341095945270       35.09789672155195
O           27.36889828917467       36.34774459036171       35.33625408557231
H           27.93938756465868       36.53406113906799       34.57637716886286
C           27.97041636152179       38.63070675086975       36.07918424827015
H           27.46448190411873       39.59937408502743       36.09105787688981
C           28.67773651681719       38.41739716158457       37.41690078912296
H           29.70795143524218       38.77559189230231       37.36422994089759
H           28.16421779742046       38.96927910524592       38.20706523104352
H           28.66659826488393       37.35984712427635       37.69077553575244
C           28.91073536665525       38.63320845142276       34.90065660917223
C           28.58235826321096       39.37975501461307       33.77186351243998
C           30.08909985271785       37.89271890155715       34.88786296685334
C           29.42178311298056       39.41710217907983       32.67400945888990
H           27.65872012610305       39.94501298569665       33.76076653818326
C           30.93915572046922       37.94310565106793       33.79531188887108
H           30.34928366755869       37.27921036057755       35.73733026225798
C           30.61448934059389       38.71047307145645       32.68972877793686
H           29.14800731717870       40.00638206651522       31.80969418156433
H           31.86538348927343       37.38299789691339       33.80983466153972
H           31.28529463448241       38.75982317719254       31.84431285414080
42
 energy: -62.216398771522 gnorm: 0.010558718821 xtb: 6.5.1 (579679a)
C           25.36135121868833       41.35524787627780       40.68990498077913
C           25.69034741465739       40.22481928673783       39.95791727143774
C           24.86961370729652       39.10620725786277       39.96865989206901
C           23.71781388806317       39.13080050912122       40.74337693632266
C           23.38919431936689       40.23760358574973       41.50869150106350
C           24.22064061235133       41.36764520714659       41.46762326267586
O           22.28422659955702       40.22759276573176       42.29494938862029
O           23.83835728256244       42.44060882496375       42.23935433754258
C           25.23368920671276       37.88027142127193       39.18323928452921
C           25.29651470048813       38.12935731289283       37.66478114554862
N           26.24563011067718       37.20146137729585       37.09204449225349
H           26.00565229987767       42.22403758757498       40.66212697822716
H           26.60040166454075       40.22026172514688       39.37695574241463
H           23.05849851625789       38.27903794119003       40.77765246060351
H           22.26299452293911       41.07139692815002       42.76672910158608
H           24.45763308105446       43.16594277174151       42.11566096730562
H           26.22808162937397       37.54377285263307       39.48565067507174
H           24.52861757035569       37.07797353568662       39.39838999274174
H           25.65859730909238       39.14200104665639       37.47877952555380
H           24.28850326109971       38.05108772353105       37.22652562859587
H           25.87400731853263       36.26266351988586       37.01737606327232
C           26.87733746010625       37.54644515870719       35.84939377520760
H           26.16515184023380       37.96423576549351       35.09903510911270
O           27.39108091791570       36.33762438462588       35.36325514393658
H           28.00191959896526       36.51522737603437       34.63506857324667
C           27.98367364149365       38.62606629090582       36.08080277442467
H           27.48018569073537       39.59570339398986       36.10949698519084
C           28.70705659551817       38.39750563433020       37.40745609461412
H           29.71393728265948       38.81079009665125       37.36263847243099
H           28.16719801301851       38.88661381335911       38.21799132107314
H           28.75256576314480       37.33263994362212       37.63974832526528
C           28.91347371874232       38.63645417680107       34.89362855023263
C           28.58828416038616       39.40333440602755       33.77799886862631
C           30.07794071729426       37.87539592857220       34.86466754902101
C           29.41798970190241       39.43542910806651       32.67291527805762
H           27.67602345966043       39.98616845075102       33.78532987624568
C           30.91495960248445       37.91532046142861       33.76198803201970
H           30.33607723628609       37.25552093649814       35.70987055022688
C           30.59318845968188       38.69889314855607       32.66819148264128
H           29.15127384336645       40.04213824204510       31.81924069650776
H           31.82813299022379       37.33469626722139       33.75877100536024
H           31.25367519263557       38.73715968906328       31.81420728834310
42
 energy: -62.217134979385 gnorm: 0.010711503100 xtb: 6.5.1 (579679a)
C           25.34915583535340       41.36234387536405       40.71639352829625
C           25.68046021124873       40.24158026737052       39.97186599260314
C           24.85795522855372       39.12417000279785       39.96738295369891
C           23.69897275571290       39.14503145052552       40.73174259516950
C           23.36553526395439       40.24648051483766       41.50157254859620
C           24.20167027149710       41.37155596131070       41.48406147817150
O           22.24619302537152       40.23452790445637       42.27022223842773
O           23.82257019157384       42.43777664897069       42.26755848524046
C           25.23814210503951       37.90267034400605       39.18181623430705
C           25.29746148924551       38.13540318568479       37.66136962076710
N           26.26213251518368       37.20995308098797       37.10665013447778
H           25.99451483560659       42.23147831034184       40.70358132582810
H           26.59410419173145       40.24091725467234       39.39775186456313
H           23.04110041169906       38.29147843841104       40.75317109528862
H           22.22451081352950       41.07140642818249       42.75302454682696
H           24.44096498644938       43.16399770006865       42.14986102021101
H           26.24089494961097       37.58548014401555       39.48103754935040
H           24.54941005048304       37.08693451047815       39.40324923273797
H           25.64408603151238       39.14986785320495       37.46151129258169
H           24.29488916162222       38.03470078243159       37.21850607078011
H           25.90202547538074       36.26603326064854       37.05305021960078
C           26.89356101698489       37.53980885569067       35.85786473759777
H           26.18022093202622       37.94492734480496       35.10240279788886
O           27.41047607327839       36.32528037929078       35.38674579364981
H           28.06663565508346       36.50376084235081       34.69568389423937
C           27.99783760377283       38.61941064659339       36.08181603469869
H           27.49255706832409       39.58902332642329       36.13233893971526
C           28.73872260957069       38.37229815643029       37.39641248760468
H           29.72304933830264       38.84262879443234       37.36740763982346
H           28.17257733497521       38.79530037836216       38.22778478548074
H           28.84143966292887       37.30067275629623       37.57983079246021
C           28.91509942626023       38.64235159640157       34.88572815591610
C           28.59469335613611       39.42823192335158       33.78251389268118
C           30.06603764593086       37.86100611701908       34.83853199394467
C           29.41469867936258       39.45289305628125       32.66960890464082
H           27.69569091163489       40.02957859367678       33.80547760256380
C           30.89056734248225       37.89015289413268       33.72664324710553
H           30.32354627704068       37.23401930928520       35.67812924473072
C           30.57156046373961       38.68860326672759       32.64340139690396
H           29.15570011670642       40.07423769673187       31.82512183939844