21
 energy: -33.351197870247 gnorm: 0.143249280389 xtb: 6.5.1 (579679a)
C            1.47000000000000       11.57000000000000      106.61999999999999
C            1.07000000000000       11.52000000000000      105.29999999999998
C           -0.05000000000000       10.73000000000000      104.91000000000000
C           -0.79000000000000        9.98000000000000      105.88000000000000
C           -0.27000000000000       10.00000000000000      107.20000000000000
C            0.78000000000000       10.79000000000000      107.55999999999999
H            2.32000000000000       12.19000000000000      106.89999999999999
H            1.63000000000000       12.08000000000000      104.56000000000000
H           -1.59000000000000        9.32000000000000      105.56999999999999
O           -0.94000000000000        9.29000000000000      108.14999999999999
H           -0.63000000000000        9.71000000000000      108.98000000000000
O            1.31000000000000       10.71000000000000      108.77000000000000
H            0.78000000000000       10.09000000000000      109.30999999999999
C           -0.46000000000000       10.58000000000000      103.44000000000000
H           -1.54000000000000       10.77000000000000      103.40000000000001
H           -0.02000000000000       11.39000000000000      102.84000000000000
C           -0.42000000000000        9.13000000000000      102.84999999999999
H           -0.82000000000000        9.05000000000000      101.82999999999998
H           -1.13000000000000        8.44000000000000      103.32999999999998
N            0.96000000000000        8.64000000000000      102.97999999999999
H            1.13000000000000        7.75000000000000      102.51999999999998
21
 energy: -33.377486208021 gnorm: 0.059102879393 xtb: 6.5.1 (579679a)
C            1.46080370264185       11.56081396788046      106.59007657230086
C            1.04512911247245       11.49354982152033      105.26843080568094
C           -0.03245455239730       10.68650617643143      104.88055817610805
C           -0.75407519982648        9.98215367835520      105.86660068636589
C           -0.28010058859421       10.00515143608229      107.18693906527130
C            0.80356864821262       10.77670351575685      107.54681694355777
H            2.30282632355722       12.17666377359662      106.88307907613871
H            1.59355668498128       12.06125678101031      104.52981640983086
H           -1.57403716163361        9.34227625643513      105.58442052667385
O           -0.96584236967438        9.28269343070430      108.15064254035183
H           -0.69812962933533        9.67865921578114      108.99764129011349
O            1.32263862756758       10.74108025118617      108.81058426644070
H            0.82310726794214       10.09577984170480      109.34068789496251
C           -0.50883227783458       10.56678422461276      103.44664156329674
H           -1.58287646696840       10.80520590531959      103.41099388008017
H            0.00738596802460       11.31653133917481      102.82995622771381
C           -0.37169510623076        9.12793074499033      102.86545806889961
H           -0.77267931454003        9.11937214039739      101.81893249926868
H           -1.10505901146669        8.48274652090890      103.40928203540824
N            0.98683313770683        8.66519794957574      102.98264435251920
H            1.08993220539521        7.76294302857545      102.49979711901670
21
 energy: -33.384023249700 gnorm: 0.017348242106 xtb: 6.5.1 (579679a)
C            1.45508728443497       11.53768575863163      106.56226212765350
C            1.02580775952114       11.46529757448969      105.24200154957092
C           -0.03948739035163       10.67065435040846      104.86680637415813
C           -0.72574527213970        9.96894290379483      105.86492810629615
C           -0.28573701070378       10.00023915768612      107.18298504824025
C            0.81615757692483       10.76539350061920      107.53640655546234
H            2.28968893538839       12.15378279084904      106.86066631046910
H            1.56175775781417       12.04049678007244      104.50019369115121
H           -1.57242517641362        9.35128829943017      105.61134292583594
O           -0.99149255416574        9.27795238907150      108.15301286452670
H           -0.77105821273895        9.66190332396803      109.01305685263902
O            1.32083514239177       10.78968069374147      108.83990475371976
H            0.88131129254420       10.09180250363236      109.35316047851684
C           -0.51154073403524       10.56636257697955      103.45074968564955
H           -1.57923136442769       10.82240374466218      103.40532557627306
H            0.03915003904593       11.27487292884297      102.81908311070596
C           -0.34259800198456        9.13179692640485      102.88660685584806
H           -0.75880383387978        9.15132303826144      101.83142906209197
H           -1.07894122579590        8.49597763345368      103.45953954215258
N            0.99766827900969        8.71015182236298      102.97693057071507
H            1.05959670956151        7.80199130263737      102.48360795832420
21
 energy: -33.385227900397 gnorm: 0.014826095528 xtb: 6.5.1 (579679a)
C            1.46004708059557       11.51922373931527      106.55120711934364
C            1.02713615022156       11.44681093178335      105.23308754511037
C           -0.04342774770319       10.65715304423410      104.86481359493062
C           -0.72477632253469        9.95875865834734      105.87180570076116
C           -0.29253330379189       10.00231648852338      107.18855777612946
C            0.81622711960095       10.76497400087508      107.53481733116634
H            2.29874715417375       12.13045699841974      106.84490878437130
H            1.55608926103359       12.02130725350297      104.48532494495059
H           -1.58117214918857        9.34761555144193      105.63252995615871
O           -1.00829606254871        9.28382915183684      108.15646762480480
H           -0.82130926784433        9.67393052831108      109.02096442681807
O            1.31315521885330       10.81583738977290      108.84867685132957
H            0.91519394867880       10.08193236907137      109.34767906059071
C           -0.51662365463703       10.56986273322770      103.45280346280941
H           -1.58119871340731       10.83493595758571      103.39471857212219
H            0.05049939506701       11.26351607910497      102.82439360574315
C           -0.33607495488442        9.13558417277949      102.89401851834161
H           -0.78176161599281        9.14429353019412      101.84556712997882
H           -1.05421385002081        8.49191878663567      103.49049648051177
N            1.00852228871568        8.74418898274204      102.95515640577638
H            1.08577002561356        7.84155365229489      102.46200510825129
21
 energy: -33.386317073872 gnorm: 0.015031724529 xtb: 6.5.1 (579679a)
C            1.47031252474421       11.49292183879623      106.54099684131710
C            1.03046573855242       11.42584171816759      105.22828336808658
C           -0.05560462218228       10.64928500955953      104.86700434028779
C           -0.73603223196238        9.95500726245377      105.88261298352806
C           -0.30557812748597       10.01125037438812      107.19713343438502
C            0.81241079189870       10.76544411008636      107.53514764256205
H            2.32104290925839       12.09215897565194      106.82560042452407
H            1.55785991898948       11.98676084246731      104.46980740842695
H           -1.59724040033700        9.34673198712669      105.65662964126838
O           -1.02853032049686        9.29891159621219      108.16230939458988
H           -0.88428142078523        9.70556135417531      109.02706224153248
O            1.29780702968044       10.83838980223562      108.85623619490418
H            0.95642363959743       10.06113649220817      109.33143302392000
C           -0.52242677923910       10.57123373533954      103.45631325522820
H           -1.58345234696004       10.84270622780422      103.38112102052109
H            0.06081991020462       11.25033033607908      102.83404163363741
C           -0.33116168703212        9.13665556095697      102.90309795448350
H           -0.82877568968231        9.11308408286742      101.87013929494533
H           -1.00814314436209        8.47687887288503      103.54257137016778
N            1.02752084637289        8.80031133731980      102.91660997176507
H            1.13656346122681        7.90939848321909      102.41584855991884
21
 energy: -33.387002691483 gnorm: 0.012312322451 xtb: 6.5.1 (579679a)
C            1.47911164231064       11.47194551527100      106.53645813373869
C            1.03401493908652       11.40913433662445      105.22847670747289
C           -0.06866769370173       10.64873880035465      104.87133954293731
C           -0.75354449642047        9.96081097350397      105.89051891925546
C           -0.31905174050966       10.02221799485072      107.20354209825176
C            0.80719712982414       10.76474376369851      107.53660692982544
H            2.34324299783867       12.05725915363401      106.81323388807019
H            1.56545197844343       11.95362192662246      104.46128890673599
H           -1.61846303176180        9.35601505589819      105.67062981182711
O           -1.04212433060666        9.31765450418110      108.17051754600763
H           -0.92364949594618        9.74431682105972      109.02798041462722
O            1.28337818484105       10.84213266302148      108.85869547661322
H            0.98393788972118       10.04182389973978      109.31468178336959
C           -0.53083488700242       10.57091783073727      103.46010919861189
H           -1.59060341338275       10.83995796142664      103.37403027848056
H            0.05944129457495       11.24360117357990      102.84122591685286
C           -0.32373319249721        9.13462045889636      102.91463787119928
H           -0.86324087014289        9.07725198137688      101.89859301559088
H           -0.95863170183802        8.45819978072954      103.58517504585761
N            1.04427186394713        8.84443976163393      102.88357553942937
H            1.18249693322209        7.97059564315940      102.35868297524470
21
 energy: -33.387616656128 gnorm: 0.013436720970 xtb: 6.5.1 (579679a)
C            1.48423513333102       11.45725603577719      106.53651155521837
C            1.03619284672060       11.39596432489416      105.23155844754427
C           -0.08273350964736       10.65440115461478      104.87743903201357
C           -0.77469687560197        9.97416162787436      105.89636030633726
C           -0.33242654468852       10.03389175345091      107.20821220668977
C            0.79970242426720       10.76500244688601      107.53931150364191
H            2.36238918437198       12.02600125463774      106.80718651019217
H            1.57808151692135       11.91971426814113      104.45729178017172
H           -1.64579566107042        9.37734629028185      105.67801383196149
O           -1.05190556131895        9.34087316928501      108.18297530602611
H           -0.95014392749153        9.79553360812336      109.02676670832457
O            1.26535796670479       10.83893894570573      108.86095298388798
H            1.01602686556552       10.00645897387115      109.29360482620312
C           -0.53862928031180       10.56558455145498      103.46495505007344
H           -1.59980895585724       10.82105810571669      103.37326911691409
H            0.04715002313632       11.24047183153591      102.84651892550428
C           -0.31146357683754        9.12869910683859      102.92393304646285
H           -0.88331701666422        9.04021370898680      101.92644960287984
H           -0.90579310688273        8.44217808868485      103.61955037854167
N            1.05861431112964        8.87862534204554      102.85545373190710
H            1.21896374422386        8.02762541119322      102.29368514950440
21
 energy: -33.388175209394 gnorm: 0.014377775034 xtb: 6.5.1 (579679a)
C            1.49281824027881       11.43776214255791      106.53754493024202
C            1.03995896468613       11.38080127940598      105.23441197315125
C           -0.09529141503326       10.66132194980083      104.88358085940973
C           -0.79957973325340        9.99307117592063      105.90060643428876
C           -0.34893265825683       10.04631938444624      107.21165542847166
C            0.79535557631947       10.75759899745486      107.54058289091381
H            2.38100330147748       11.99209557944630      106.80523883430006
H            1.59271484251421       11.88765688585600      104.45660004074624
H           -1.68092352352088        9.41076503482832      105.68041166772986
O           -1.06340068772821        9.37143779017547      108.20172449782469
H           -0.96450085215240        9.86020261711512      109.02529687564231
O            1.24889688918838       10.81731800366744      108.86172326974670
H            1.03525674742264        9.98051299802831      109.27616742662724
C           -0.54806311244270       10.55732731813643      103.47054686504309
H           -1.61512494939080       10.78327864417643      103.38206234339869
H            0.01741081829429       11.24626682252746      102.84828556364008
C           -0.29228652190759        9.11885774389079      102.93320034570958
H           -0.89541139210833        9.00461375412565      101.95989032609843
H           -0.84112398895012        8.42627243453191      103.65501804108665
N            1.08010393567252        8.91091371842936      102.81778843382396
H            1.25111951889061        8.08560572547852      102.21766295210469
21
 energy: -33.388506900973 gnorm: 0.021459954752 xtb: 6.5.1 (579679a)
C            1.49610577806029       11.42308481166811      106.54040905041919
C            1.04531703496582       11.36289336728096      105.23592850024740
C           -0.10395376551568       10.66641266208986      104.88800599689959
C           -0.82391539604518       10.01415485385668      105.90356945771104
C           -0.36897569563068       10.06073430325135      107.21390576609107
C            0.78475190452613       10.75546915643273      107.54280238446276
H            2.39463158744851       11.96021525447219      106.80721316664514
H            1.61294928896941       11.85048893968003      104.45641963381901
H           -1.72033145933193        9.45396512017224      105.68114137889611
O           -1.08236400137224        9.41202951120359      108.22483470524880
H           -0.98371133641071        9.94277292301467      109.02437518532574
O            1.21884476304701       10.80652621759987      108.86969635781713
H            1.08315743507321        9.91158070579995      109.24533290314739
C           -0.55702218117824       10.54715529921811      103.47685429695068
H           -1.63315085943896       10.73394616093138      103.39663178682794
H           -0.01973095722123       11.25544638016752      102.84650815646152
C           -0.26628987398917        9.10716817877662      102.94212537304631
H           -0.90596991882535        8.96653383183434      101.99933994871516
H           -0.76172676145496        8.41285695178757      103.69949455915068
N            1.10669022344339        8.94336434248088      102.76932035683511
H            1.27469419088058        8.14320102828129      102.13609103528189
21
 energy: -33.388831582688 gnorm: 0.010372822243 xtb: 6.5.1 (579679a)
C            1.49769088861901       11.41956979633781      106.53974309698002
C            1.04501630181527       11.36165021304810      105.23377303906102
C           -0.10124375926585       10.66466972344149      104.88714837709247
C           -0.82352470346288       10.01539580158881      105.90392840777268
C           -0.37227869905810       10.06186547356385      107.21376609797056
C            0.78804971736940       10.75006951281345      107.54092180914765
H            2.39365265369971       11.95813830480939      106.80857575592235
H            1.61112952225692       11.85391112690489      104.45723478339080
H           -1.72267879627878        9.46111726784127      105.68027840933712
O           -1.09182820161782        9.42221968498171      108.22887420808004
H           -0.97105696715606        9.94455167046676      109.02669643930156
O            1.22391172139489       10.79610362510054      108.86997877504791
H            1.07615121375871        9.91966167544054      109.25085774811696
C           -0.55882461788554       10.54515339675170      103.47887984157093
H           -1.63871867372729       10.71850961863380      103.40640462926225
H           -0.03582472355693       11.26231987149170      102.84458700003003
C           -0.25970768861081        9.10893128433093      102.93653488552603
H           -0.88949476564089        8.97054803267348      101.99610937204893
H           -0.75215498803490        8.41695578774401      103.69043698885244
N            1.10813180754834        8.93814889847629      102.76889257827764
H            1.26360275783361        8.14050923355945      102.13637775721067
21
 energy: -33.388963387838 gnorm: 0.011653717201 xtb: 6.5.1 (579679a)
C            1.50464871247580       11.40354458369789      106.53825824863591
C            1.05084442050162       11.34872254493930      105.23117882254866
C           -0.10175817663047       10.66233715970217      104.88763506099467
C           -0.83096871192221       10.02133581143618      105.90741368162951
C           -0.38572494731394       10.07122594295535      107.21665657162728
C            0.78630331068550       10.74553095340445      107.54086256564935
H            2.40528846634747       11.93474723244933      106.80679703847848
H            1.62035988241676       11.83689096439030      104.45453453407397
H           -1.73788944111146        9.47993530031438      105.68468466215191
O           -1.11599145905705        9.44773282711079      108.23608566282495
H           -0.98456259320310        9.97400828902507      109.03102576827725
O            1.21819511738499       10.78804173571007      108.87516901670470
H            1.08321138469448        9.91521982625171      109.24845447914323
C           -0.56384152749564       10.53934585733644      103.48409345729640
H           -1.64757702560319       10.69371479847860      103.41876792806964
H           -0.05842197996326       11.26359803702864      102.84286720145660
C           -0.24937515458686        9.10410956791614      102.94270546954262
H           -0.90314630664707        8.95347027933667      102.01926795284274
H           -0.70857950097173        8.40653474902090      103.72054392045567
N            1.12597210526843        8.95929242746321      102.73520876266522
H            1.28301342473097        8.18066111203234      102.07778919493076
21
 energy: -33.389159253013 gnorm: 0.009568444807 xtb: 6.5.1 (579679a)
C            1.50556032185898       11.39598945750415      106.53847986398101
C            1.05246293934997       11.34109235291227      105.23030503047968
C           -0.10532709656859       10.66292381267514      104.88929165007096
C           -0.83860585039831       10.02752402272335      105.91150033431923
C           -0.39634553287092       10.08048219398215      107.21989147215726
C            0.78137940390800       10.74722366475112      107.54234611776846
H            2.41117723670121       11.91997769517937      106.80557441228969
H            1.62629696442245       11.82356786955390      104.45287170096130
H           -1.74964094525061        9.49478228379872      105.68861879594081
O           -1.13262743657101        9.46765283242349      108.24128613642803
H           -0.98592262595076        9.99277977144220      109.03549650244418
O            1.21375896631551       10.78596742781713      108.87923355878286
H            1.10174599826640        9.90078769380636      109.24208069449936
C           -0.56817818016284       10.53368872153443      103.48849053867784
H           -1.65443191195615       10.67350661803148      103.42570919934693
H           -0.07448975370872       11.26369080370247      102.84353557749471
C           -0.23985102020015        9.10088341460953      102.94440651158429
H           -0.89386896269799        8.94304551465681      102.02949174019521
H           -0.68336209225102        8.40253566357911      103.72368353501470
N            1.13106781728861        8.96323347659410      102.72958957578795
H            1.28920176047598        8.20866470872267      102.03811705177520
21
 energy: -33.389421248885 gnorm: 0.011670140552 xtb: 6.5.1 (579679a)
C            1.50470991893351       11.38331649447064      106.53913385275398
C            1.05468856411827       11.32920385478049      105.23010741653157
C           -0.11348073528192       10.66638556546355      104.89076002125387
C           -0.85307006322320       10.04103774203366      105.91777607219176
C           -0.41577842394090       10.09835942841656      107.22487067035357
C            0.77004501136446       10.75274134971903      107.54567651262532
H            2.42006684149716       11.89309298207849      106.80340381017697
H            1.63776998742637       11.79950568200265      104.45122157002589
H           -1.77045244686430        9.52167883921269      105.69458772560851
O           -1.16446140861626        9.50087587561642      108.24312566378124
H           -0.97609570217786       10.00254847403875      109.04386063749865
O            1.20827808347998       10.78550339718666      108.88544059504694
H            1.13263206013331        9.88144229058014      109.23246461023732
C           -0.57419756681515       10.52516614636441      103.49270546012045
H           -1.66232174138614       10.64458567058343      103.43187948172996
H           -0.09623250342704       11.26125218472712      102.84332458552895
C           -0.22494304262177        9.09465569142468      102.94427327069208
H           -0.88710858752786        8.91876696089424      102.04545071517738
H           -0.63893618452696        8.39662994862784      103.73502944042038
N            1.14376967866776        8.97728259446735      102.71410009740177
H            1.29511826078857        8.25596882731113      101.99080779084336
21
 energy: -33.389734500378 gnorm: 0.020141195998 xtb: 6.5.1 (579679a)
C            1.50440677707938       11.36289766939234      106.53895993031692
C            1.05746977329071       11.31191731408035      105.23056408598924
C           -0.12586043815222       10.67038799994025      104.89325576590478
C           -0.87447953316077       10.06127837875785      105.92690013520783
C           -0.44330436916074       10.12423900739711      107.23312814314021
C            0.75462486410593       10.75991009655152      107.55060304402268
H            2.43202691880668       11.85379140285142      106.79912045069005
H            1.65225728439284       11.76423935634991      104.44898457005374
H           -1.80209601239176        9.56003535454485      105.70466991747334
O           -1.21119981531942        9.54847708106458      108.24423265228300
H           -0.95388952205833       10.00255905417520      109.06138017876944
O            1.20352271310018       10.78635620075489      108.89290644098104
H            1.16500317616517        9.87184516804572      109.22452587337099
C           -0.58190975069486       10.51365537736796      103.49826353981108
H           -1.67094553503073       10.61006193192895      103.43544920689855
H           -0.11804019372019       11.25307638569928      102.84364621392588
C           -0.20615420856017        9.08253919792075      102.95078781547012
H           -0.87961820675404        8.88585395204218      102.07166517947304
H           -0.58305912638393        8.38415664133870      103.75290300951215
N            1.16008395178691        8.99072359653825      102.69523915882354
H            1.31116125265940        8.33199883325785      101.90281468788223
21
 energy: -33.390012730618 gnorm: 0.025121179935 xtb: 6.5.1 (579679a)
C            1.50114658415531       11.34629381305919      106.53790227130520
C            1.05609597032364       11.30060295188539      105.23246824006218
C           -0.14028410111132       10.67661668733678      104.89404345225124
C           -0.89500975461498       10.08285565093177      105.93194496612094
C           -0.46630854689236       10.14694366682074      107.23903617185776
C            0.74028276266392       10.76655402646821      107.55429234123569
H            2.43708491399155       11.82191157156708      106.79571523522804
H            1.65970839478573       11.73623821205878      104.44855661866768
H           -1.82963866617658        9.59291181679148      105.71129591636628
O           -1.24906462492291        9.58738030114634      108.24067836309169
H           -0.91219743343496        9.97112190184603      109.08109229538037
O            1.20253196569803       10.78827581247732      108.89539228690185
H            1.18514961532661        9.87387780102711      109.21884523999185
C           -0.58619543896080       10.50820691425287      103.49836482154566
H           -1.67387288240741       10.59050703821390      103.42787983533583
H           -0.12486809544749       11.24550464878291      102.84275033487570
C           -0.18978951279923        9.07208603079736      102.95527975673865
H           -0.87565004820610        8.85657537877063      102.09081947442174
H           -0.53957932398203        8.37768986729358      103.76920632567520
N            1.17359219371299        8.99913318661963      102.67858637981006
H            1.31686602829844        8.38871272185282      101.85584967313636
21
 energy: -33.390469959940 gnorm: 0.015247934075 xtb: 6.5.1 (579679a)
C            1.50354981991564       11.33589597424480      106.53592580242091
C            1.05383284276149       11.29426391536356      105.23418168728270
C           -0.14961743673716       10.67925095044691      104.89661580857559
C           -0.90858496720440       10.09437447586142      105.93313580748037
C           -0.47366845578728       10.15294032142944      107.24109412298633
C            0.73843887265875       10.76254324178672      107.55396289601974
H            2.44210617667430       11.80516220218366      106.79354149629221
H            1.65948791801898       11.71997519629405      104.44738868077697
H           -1.84802249171939        9.60804805958393      105.71530020078444
O           -1.25076770028581        9.60253990436981      108.25196648020909
H           -0.91170529689630        9.98178474828267      109.08403633785844
O            1.19356861539984       10.78306459918159      108.89419329185968
H            1.19214794214824        9.86757158498465      109.20902600455385
C           -0.58733823380326       10.50774658135164      103.49862655306384
H           -1.67633912015423       10.58100037929798      103.42080845234112
H           -0.12424199373893       11.24545593192372      102.84417299043541
C           -0.17829375929868        9.06609452146568      102.96117484571802
H           -0.88477138019089        8.83809249132672      102.10628647145155
H           -0.50970725490863        8.37380361359884      103.79335293219333
N            1.18227652450759        9.00969045102081      102.66084495218584
H            1.32764937864016        8.42070085600127      101.82436418551029
21
 energy: -33.391044274406 gnorm: 0.017541517849 xtb: 6.5.1 (579679a)
C            1.50095411574657       11.32272009028212      106.53215871576197
C            1.04564195260253       11.28573363467287      105.23629546502403
C           -0.16831488468946       10.68394805909477      104.90117571267933
C           -0.93462032071429       10.11903370045343      105.93764706332233
C           -0.48981140555995       10.16810842961684      107.24592882965861
C            0.73181862890344       10.75983666049181      107.55377089551227
H            2.44530026371042       11.77849509739446      106.78948495345887
H            1.65270456686138       11.69452734844533      104.44431398600885
H           -1.87651522071796        9.63420199056720      105.72532528401328
O           -1.25776204980921        9.63304621456840      108.26968061989450
H           -0.88955679555870        9.97629166988316      109.09652751146211
O            1.18357561415723       10.77526355132184      108.89014985100454
H            1.20991575650658        9.86316220665714      109.19329328235106
C           -0.58617255925048       10.50400091126437      103.50014027042285
H           -1.67477337064668       10.56346421825020      103.40375213164485
H           -0.11800284706130       11.24019457554247      102.84741680874021
C           -0.15692453585822        9.05061193444550      102.97198070099061
H           -0.87239674856358        8.81710192437648      102.12574651222641
H           -0.47736075356611        8.37324454965848      103.81202225637327
N            1.19074528118313        9.00424555099713      102.65587920445969
H            1.33155531232472        8.48276768201590      101.76730994499020
21
 energy: -33.391791480974 gnorm: 0.030860396505 xtb: 6.5.1 (579679a)
C            1.49842743362640       11.29353087054184      106.52767139403193
C            1.03942364898166       11.26353085613733      105.23650163368912
C           -0.19765609305818       10.69366451657722      104.90638384916804
C           -0.98092814853601       10.16434604463778      105.94675123385474
C           -0.53022598830279       10.20294904722038      107.25369302016855
C            0.71446606716343       10.75680095233432      107.55445266450553
H            2.45816168232278       11.71941326885701      106.78424250634943
H            1.65602616005260       11.64163216709903      104.43739541811553
H           -1.93635823489242        9.69876262505499      105.74160778286956
O           -1.30041259422510        9.70541078677535      108.29494694615302
H           -0.85812002733465        9.98608507887220      109.11630399806401