 Entering Gaussian System, Link 0=g16
 Input=h_rpp_vac.gjf
 Output=h_rpp_vac.log
 Initial command:
 /home/data/vip13t32/docs/gaussian/gaussian/g16/l1.exe "/home/data/vip13t32/Rtmp/Gau-2407166.inp" -scrdir="/home/data/vip13t32/Rtmp/"
 Entering Link 1 = /home/data/vip13t32/docs/gaussian/gaussian/g16/l1.exe PID=   2407168.
  
 Copyright (c) 1988-2019, Gaussian, Inc.  All Rights Reserved.
  
 This is part of the Gaussian(R) 16 program.  It is based on
 the Gaussian(R) 09 system (copyright 2009, Gaussian, Inc.),
 the Gaussian(R) 03 system (copyright 2003, Gaussian, Inc.),
 the Gaussian(R) 98 system (copyright 1998, Gaussian, Inc.),
 the Gaussian(R) 94 system (copyright 1995, Gaussian, Inc.),
 the Gaussian 92(TM) system (copyright 1992, Gaussian, Inc.),
 the Gaussian 90(TM) system (copyright 1990, Gaussian, Inc.),
 the Gaussian 88(TM) system (copyright 1988, Gaussian, Inc.),
 the Gaussian 86(TM) system (copyright 1986, Carnegie Mellon
 University), and the Gaussian 82(TM) system (copyright 1983,
 Carnegie Mellon University). Gaussian is a federally registered
 trademark of Gaussian, Inc.
  
 This software contains proprietary and confidential information,
 including trade secrets, belonging to Gaussian, Inc.
  
 This software is provided under written license and may be
 used, copied, transmitted, or stored only in accord with that
 written license.
  
 The following legend is applicable only to US Government
 contracts under FAR:
  
                    RESTRICTED RIGHTS LEGEND
  
 Use, reproduction and disclosure by the US Government is
 subject to restrictions as set forth in subparagraphs (a)
 and (c) of the Commercial Computer Software - Restricted
 Rights clause in FAR 52.227-19.
  
 Gaussian, Inc.
 340 Quinnipiac St., Bldg. 40, Wallingford CT 06492
  
  
 ---------------------------------------------------------------
 Warning -- This program may not be used in any manner that
 competes with the business of Gaussian, Inc. or will provide
 assistance to any competitor of Gaussian, Inc.  The licensee
 of this program is prohibited from giving any competitor of
 Gaussian, Inc. access to this program.  By using this program,
 the user acknowledges that Gaussian, Inc. is engaged in the
 business of creating and licensing software in the field of
 computational chemistry and represents and warrants to the
 licensee that it is not a competitor of Gaussian, Inc. and that
 it will not use this program in any manner prohibited above.
 ---------------------------------------------------------------
  

 Cite this work as:
 Gaussian 16, Revision C.01,
 M. J. Frisch, G. W. Trucks, H. B. Schlegel, G. E. Scuseria, 
 M. A. Robb, J. R. Cheeseman, G. Scalmani, V. Barone, 
 G. A. Petersson, H. Nakatsuji, X. Li, M. Caricato, A. V. Marenich, 
 J. Bloino, B. G. Janesko, R. Gomperts, B. Mennucci, H. P. Hratchian, 
 J. V. Ortiz, A. F. Izmaylov, J. L. Sonnenberg, D. Williams-Young, 
 F. Ding, F. Lipparini, F. Egidi, J. Goings, B. Peng, A. Petrone, 
 T. Henderson, D. Ranasinghe, V. G. Zakrzewski, J. Gao, N. Rega, 
 G. Zheng, W. Liang, M. Hada, M. Ehara, K. Toyota, R. Fukuda, 
 J. Hasegawa, M. Ishida, T. Nakajima, Y. Honda, O. Kitao, H. Nakai, 
 T. Vreven, K. Throssell, J. A. Montgomery, Jr., J. E. Peralta, 
 F. Ogliaro, M. J. Bearpark, J. J. Heyd, E. N. Brothers, K. N. Kudin, 
 V. N. Staroverov, T. A. Keith, R. Kobayashi, J. Normand, 
 K. Raghavachari, A. P. Rendell, J. C. Burant, S. S. Iyengar, 
 J. Tomasi, M. Cossi, J. M. Millam, M. Klene, C. Adamo, R. Cammi, 
 J. W. Ochterski, R. L. Martin, K. Morokuma, O. Farkas, 
 J. B. Foresman, and D. J. Fox, Gaussian, Inc., Wallingford CT, 2019.
 
 ******************************************
 Gaussian 16:  ES64L-G16RevC.01  3-Jul-2019
                 7-Apr-2023 
 ******************************************
 %mem=50GB
 %chk=/home/data/vip13t32/docs/g16out/mol_for_md/H_RPP/vac.chk
 %nprocshared=20
 Will use up to   20 processors via shared memory.
 --------------------
 # opt m062x/def2tzvp
 --------------------
 1/18=20,19=15,26=3,38=1/1,3;
 2/9=110,12=2,17=6,18=5,40=1/2;
 3/5=44,7=101,11=2,25=1,30=1,71=1,74=-55/1,2,3;
 4//1;
 5/5=2,38=5/2;
 6/7=2,8=2,9=2,10=2,28=1/1;
 7//1,2,3,16;
 1/18=20,19=15,26=3/3(2);
 2/9=110/2;
 99//99;
 2/9=110/2;
 3/5=44,7=101,11=2,25=1,30=1,71=1,74=-55/1,2,3;
 4/5=5,16=3,69=1/1;
 5/5=2,38=5/2;
 7//1,2,3,16;
 1/18=20,19=15,26=3/3(-5);
 2/9=110/2;
 6/7=2,8=2,9=2,10=2,19=2,28=1/1;
 99/9=1/99;
 -------------------
 Title Card Required
 -------------------
 Symbolic Z-matrix:
 Charge =  1 Multiplicity = 1
 C                    0     16.1995   23.08085   70.93274 
 C                    0     17.38585   23.66847   71.31455 
 C                    0     17.8164   23.59857   72.65775 
 C                    0     17.01898   22.90566   73.5915 
 C                    0     15.83158   22.3288   73.19625 
 C                    0     15.41897   22.41208   71.87058 
 C                    0     18.93549   24.59367   73.14273 
 C                    0     18.86263   25.10986   74.55446 
 C                    0     19.57318   23.33066   72.85374 
 O                    0     19.91058   22.50905   73.82218 
 H                    0     15.87515   23.14463   69.90611 
 H                    0     17.98376   24.20038   70.58905 
 H                    0     17.34662   22.82525   74.61629 
 H                    0     19.07537   25.37372   72.40109 
 H                    0     18.9538   24.31065   75.28322 
 H                    0     17.93433   25.65086   74.71833 
 H                    0     14.49111   21.95243   71.56686 
 H                    0     15.22314   21.80909   73.91949 
 H                    0     19.94847   23.1379   71.85238 
 H                    0     19.68797   25.80223   74.7081 
 H                    0     20.23925   21.64655   73.52836 
 

 GradGradGradGradGradGradGradGradGradGradGradGradGradGradGradGradGradGrad
 Berny optimization.
 Initialization pass.
                           ----------------------------
                           !    Initial Parameters    !
                           ! (Angstroms and Degrees)  !
 --------------------------                            --------------------------
 ! Name  Definition              Value          Derivative Info.                !
 --------------------------------------------------------------------------------
 ! R1    R(1,2)                  1.3779         estimate D2E/DX2                !
 ! R2    R(1,6)                  1.3914         estimate D2E/DX2                !
 ! R3    R(1,11)                 1.0785         estimate D2E/DX2                !
 ! R4    R(2,3)                  1.4123         estimate D2E/DX2                !
 ! R5    R(2,12)                 1.0802         estimate D2E/DX2                !
 ! R6    R(3,4)                  1.4099         estimate D2E/DX2                !
 ! R7    R(3,7)                  1.5741         estimate D2E/DX2                !
 ! R8    R(3,9)                  1.7879         estimate D2E/DX2                !
 ! R9    R(4,5)                  1.378          estimate D2E/DX2                !
 ! R10   R(4,13)                 1.0789         estimate D2E/DX2                !
 ! R11   R(5,6)                  1.3909         estimate D2E/DX2                !
 ! R12   R(5,18)                 1.0786         estimate D2E/DX2                !
 ! R13   R(6,17)                 1.0791         estimate D2E/DX2                !
 ! R14   R(7,8)                  1.5049         estimate D2E/DX2                !
 ! R15   R(7,9)                  1.4441         estimate D2E/DX2                !
 ! R16   R(7,14)                 1.0854         estimate D2E/DX2                !
 ! R17   R(8,15)                 1.0854         estimate D2E/DX2                !
 ! R18   R(8,16)                 1.0869         estimate D2E/DX2                !
 ! R19   R(8,20)                 1.0882         estimate D2E/DX2                !
 ! R20   R(9,10)                 1.3141         estimate D2E/DX2                !
 ! R21   R(9,19)                 1.0866         estimate D2E/DX2                !
 ! R22   R(10,21)                0.9686         estimate D2E/DX2                !
 ! A1    A(2,1,6)              120.0798         estimate D2E/DX2                !
 ! A2    A(2,1,11)             119.8333         estimate D2E/DX2                !
 ! A3    A(6,1,11)             120.0862         estimate D2E/DX2                !
 ! A4    A(1,2,3)              120.3274         estimate D2E/DX2                !
 ! A5    A(1,2,12)             120.0326         estimate D2E/DX2                !
 ! A6    A(3,2,12)             119.6318         estimate D2E/DX2                !
 ! A7    A(2,3,4)              118.8018         estimate D2E/DX2                !
 ! A8    A(2,3,7)              118.5869         estimate D2E/DX2                !
 ! A9    A(2,3,9)              114.2832         estimate D2E/DX2                !
 ! A10   A(4,3,7)              120.5792         estimate D2E/DX2                !
 ! A11   A(4,3,9)              114.1736         estimate D2E/DX2                !
 ! A12   A(3,4,5)              120.207          estimate D2E/DX2                !
 ! A13   A(3,4,13)             119.5992         estimate D2E/DX2                !
 ! A14   A(5,4,13)             120.1929         estimate D2E/DX2                !
 ! A15   A(4,5,6)              120.26           estimate D2E/DX2                !
 ! A16   A(4,5,18)             119.6997         estimate D2E/DX2                !
 ! A17   A(6,5,18)             120.0401         estimate D2E/DX2                !
 ! A18   A(1,6,5)              120.3168         estimate D2E/DX2                !
 ! A19   A(1,6,17)             119.8259         estimate D2E/DX2                !
 ! A20   A(5,6,17)             119.8569         estimate D2E/DX2                !
 ! A21   A(3,7,8)              118.1281         estimate D2E/DX2                !
 ! A22   A(3,7,14)             109.5988         estimate D2E/DX2                !
 ! A23   A(8,7,9)              120.6044         estimate D2E/DX2                !
 ! A24   A(8,7,14)             113.6229         estimate D2E/DX2                !
 ! A25   A(9,7,14)             115.7797         estimate D2E/DX2                !
 ! A26   A(7,8,15)             111.9139         estimate D2E/DX2                !
 ! A27   A(7,8,16)             110.7029         estimate D2E/DX2                !
 ! A28   A(7,8,20)             108.2987         estimate D2E/DX2                !
 ! A29   A(15,8,16)            109.6956         estimate D2E/DX2                !
 ! A30   A(15,8,20)            108.0579         estimate D2E/DX2                !
 ! A31   A(16,8,20)            108.0473         estimate D2E/DX2                !
 ! A32   A(3,9,10)             115.2636         estimate D2E/DX2                !
 ! A33   A(3,9,19)             105.3633         estimate D2E/DX2                !
 ! A34   A(7,9,10)             120.8468         estimate D2E/DX2                !
 ! A35   A(7,9,19)             119.478          estimate D2E/DX2                !
 ! A36   A(10,9,19)            118.6571         estimate D2E/DX2                !
 ! A37   A(9,10,21)            114.854          estimate D2E/DX2                !
 ! D1    D(6,1,2,3)             -0.1079         estimate D2E/DX2                !
 ! D2    D(6,1,2,12)          -179.0662         estimate D2E/DX2                !
 ! D3    D(11,1,2,3)           179.6007         estimate D2E/DX2                !
 ! D4    D(11,1,2,12)            0.6424         estimate D2E/DX2                !
 ! D5    D(2,1,6,5)             -0.1861         estimate D2E/DX2                !
 ! D6    D(2,1,6,17)          -179.9341         estimate D2E/DX2                !
 ! D7    D(11,1,6,5)          -179.894          estimate D2E/DX2                !
 ! D8    D(11,1,6,17)            0.358          estimate D2E/DX2                !
 ! D9    D(1,2,3,4)              0.715          estimate D2E/DX2                !
 ! D10   D(1,2,3,7)           -163.1774         estimate D2E/DX2                !
 ! D11   D(1,2,3,9)            140.2427         estimate D2E/DX2                !
 ! D12   D(12,2,3,4)           179.6774         estimate D2E/DX2                !
 ! D13   D(12,2,3,7)            15.7851         estimate D2E/DX2                !
 ! D14   D(12,2,3,9)           -40.7948         estimate D2E/DX2                !
 ! D15   D(2,3,4,5)             -1.0447         estimate D2E/DX2                !
 ! D16   D(2,3,4,13)           178.6291         estimate D2E/DX2                !
 ! D17   D(7,3,4,5)            162.5174         estimate D2E/DX2                !
 ! D18   D(7,3,4,13)           -17.8087         estimate D2E/DX2                !
 ! D19   D(9,3,4,5)           -140.6145         estimate D2E/DX2                !
 ! D20   D(9,3,4,13)            39.0593         estimate D2E/DX2                !
 ! D21   D(2,3,7,8)            145.0725         estimate D2E/DX2                !
 ! D22   D(2,3,7,14)            12.7993         estimate D2E/DX2                !
 ! D23   D(4,3,7,8)            -18.5244         estimate D2E/DX2                !
 ! D24   D(4,3,7,14)          -150.7976         estimate D2E/DX2                !
 ! D25   D(2,3,9,10)          -140.3451         estimate D2E/DX2                !
 ! D26   D(2,3,9,19)            -7.5326         estimate D2E/DX2                !
 ! D27   D(4,3,9,10)             1.0861         estimate D2E/DX2                !
 ! D28   D(4,3,9,19)           133.8985         estimate D2E/DX2                !
 ! D29   D(3,4,5,6)              0.7683         estimate D2E/DX2                !
 ! D30   D(3,4,5,18)          -179.3914         estimate D2E/DX2                !
 ! D31   D(13,4,5,6)          -178.9035         estimate D2E/DX2                !
 ! D32   D(13,4,5,18)            0.9368         estimate D2E/DX2                !
 ! D33   D(4,5,6,1)             -0.1466         estimate D2E/DX2                !
 ! D34   D(4,5,6,17)           179.6014         estimate D2E/DX2                !
 ! D35   D(18,5,6,1)          -179.9863         estimate D2E/DX2                !
 ! D36   D(18,5,6,17)           -0.2384         estimate D2E/DX2                !
 ! D37   D(3,7,8,15)            62.732          estimate D2E/DX2                !
 ! D38   D(3,7,8,16)           -59.9775         estimate D2E/DX2                !
 ! D39   D(3,7,8,20)          -178.2591         estimate D2E/DX2                !
 ! D40   D(9,7,8,15)           -22.6884         estimate D2E/DX2                !
 ! D41   D(9,7,8,16)          -145.398          estimate D2E/DX2                !
 ! D42   D(9,7,8,20)            96.3205         estimate D2E/DX2                !
 ! D43   D(14,7,8,15)         -166.8056         estimate D2E/DX2                !
 ! D44   D(14,7,8,16)           70.4849         estimate D2E/DX2                !
 ! D45   D(14,7,8,20)          -47.7967         estimate D2E/DX2                !
 ! D46   D(8,7,9,10)            10.9474         estimate D2E/DX2                !
 ! D47   D(8,7,9,19)          -157.3572         estimate D2E/DX2                !
 ! D48   D(14,7,9,10)          154.3372         estimate D2E/DX2                !
 ! D49   D(14,7,9,19)          -13.9674         estimate D2E/DX2                !
 ! D50   D(3,9,10,21)          108.0462         estimate D2E/DX2                !
 ! D51   D(7,9,10,21)          173.3653         estimate D2E/DX2                !
 ! D52   D(19,9,10,21)         -18.2361         estimate D2E/DX2                !
 --------------------------------------------------------------------------------
 Trust Radius=3.00D-01 FncErr=1.00D-07 GrdErr=1.00D-06 EigMax=2.50D+02 EigMin=1.00D-04
 Number of steps in this run=    121 maximum allowed number of steps=    126.
 GradGradGradGradGradGradGradGradGradGradGradGradGradGradGradGradGradGrad

                          Input orientation:                          
 ---------------------------------------------------------------------
 Center     Atomic      Atomic             Coordinates (Angstroms)
 Number     Number       Type             X           Y           Z
 ---------------------------------------------------------------------
      1          6           0       16.199504   23.080850   70.932744
      2          6           0       17.385845   23.668469   71.314547
      3          6           0       17.816401   23.598571   72.657755
      4          6           0       17.018979   22.905664   73.591498
      5          6           0       15.831579   22.328795   73.196253
      6          6           0       15.418970   22.412077   71.870584
      7          6           0       18.935485   24.593670   73.142733
      8          6           0       18.862630   25.109859   74.554458
      9          6           0       19.573178   23.330656   72.853739
     10          8           0       19.910582   22.509051   73.822176
     11          1           0       15.875147   23.144634   69.906109
     12          1           0       17.983764   24.200378   70.589046
     13          1           0       17.346618   22.825253   74.616291
     14          1           0       19.075370   25.373717   72.401093
     15          1           0       18.953800   24.310649   75.283221
     16          1           0       17.934334   25.650865   74.718326
     17          1           0       14.491108   21.952434   71.566859
     18          1           0       15.223144   21.809092   73.919493
     19          1           0       19.948474   23.137898   71.852375
     20          1           0       19.687972   25.802228   74.708103
     21          1           0       20.239245   21.646548   73.528359
 ---------------------------------------------------------------------
                    Distance matrix (angstroms):
                    1          2          3          4          5
     1  C    0.000000
     2  C    1.377852   0.000000
     3  C    2.420342   1.412257   0.000000
     4  C    2.787688   2.429191   1.409922   0.000000
     5  C    2.413385   2.784113   2.416988   1.378011   0.000000
     6  C    1.391415   2.399229   2.788384   2.401084   1.390892
     7  C    3.828612   2.568978   1.574095   2.593019   3.842753
     8  C    4.932133   3.841292   2.641225   3.030646   4.332010
     9  C    3.890283   2.695858   1.787862   2.692366   3.888521
    10  O    4.737919   3.742559   2.632210   2.927778   4.130682
    11  H    1.078542   2.130800   3.397952   3.866206   3.390064
    12  H    2.134258   1.080178   2.160957   3.409078   3.864226
    13  H    3.866486   3.407941   2.157448   1.078894   2.135022
    14  H    3.960290   2.634948   2.191351   3.425944   4.519514
    15  H    5.293884   4.315235   2.948526   2.929068   4.246344
    16  H    4.893388   3.976990   2.910631   3.105438   4.215973
    17  H    2.143371   3.374603   3.867479   3.376084   2.143230
    18  H    3.389885   3.862681   3.393995   2.129571   1.078592
    19  H    3.860538   2.671671   2.325207   3.414736   4.405619
    20  H    5.816239   4.622654   3.544405   4.093948   5.405755
    21  H    5.011382   4.138963   3.230870   3.458247   4.472502
                    6          7          8          9         10
     6  C    0.000000
     7  C    4.329387   0.000000
     8  C    5.132252   1.504901   0.000000
     9  C    4.366672   1.444082   2.561813   0.000000
    10  O    4.898235   2.399603   2.898042   1.314058   0.000000
    11  H    2.145669   4.684134   5.864666   4.732711   5.659000
    12  H    3.379131   2.753501   4.162217   2.900256   4.126299
    13  H    3.380155   2.796993   2.742544   2.884370   2.702687
    14  H    4.735189   1.085390   2.179876   2.151000   3.305053
    15  H    5.267418   2.159196   1.085424   2.691913   2.509151
    16  H    4.992639   2.145334   1.086864   3.397920   3.818329
    17  H    1.079096   5.404812   6.164843   5.420608   5.896353
    18  H    2.144754   4.705179   4.954201   4.730093   4.740410
    19  H    4.587326   2.193272   3.516950   1.086615   2.068091
    20  H    6.145650   2.115946   1.088195   3.092007   3.417519
    21  H    5.154543   3.245616   3.865550   1.932609   0.968638
                   11         12         13         14         15
    11  H    0.000000
    12  H    2.455048   0.000000
    13  H    4.945001   4.302978   0.000000
    14  H    4.629814   2.419058   3.793462   0.000000
    15  H    6.304842   4.794623   2.287844   3.074339   0.000000
    16  H    5.803351   4.376906   2.887890   2.597757   1.776118
    17  H    2.468804   4.267085   4.267878   5.780708   6.268026
    18  H    4.279723   4.942787   2.455046   5.463674   4.694181
    19  H    4.514420   2.566115   3.808757   2.462172   3.759710
    20  H    6.682782   4.736758   3.788502   2.425118   1.759141
    21  H    5.866030   4.499867   3.307602   4.064127   3.439381
                   16         17         18         19         20
    16  H    0.000000
    17  H    5.955329   0.000000
    18  H    4.769476   2.468058   0.000000
    19  H    4.311083   5.591931   5.326110   0.000000
    20  H    1.760187   7.189973   6.041666   3.914293   0.000000
    21  H    4.771078   6.081294   5.033953   2.262210   4.354925
                   21
    21  H    0.000000
 Stoichiometry    C9H11O(1+)
 Framework group  C1[X(C9H11O)]
 Deg. of freedom    57
 Full point group                 C1      NOp   1
 Largest Abelian subgroup         C1      NOp   1
 Largest concise Abelian subgroup C1      NOp   1
                         Standard orientation:                         
 ---------------------------------------------------------------------
 Center     Atomic      Atomic             Coordinates (Angstroms)
 Number     Number       Type             X           Y           Z
 ---------------------------------------------------------------------
      1          6           0       -2.309623   -0.976064   -0.050662
      2          6           0       -0.970273   -1.287413   -0.138295
      3          6           0        0.000895   -0.262150   -0.150111
      4          6           0       -0.425422    1.078436   -0.055431
      5          6           0       -1.768807    1.374733    0.024816
      6          6           0       -2.712819    0.353262    0.029082
      7          6           0        1.454302   -0.607103   -0.646487
      8          6           0        2.214364    0.447936   -1.404067
      9          6           0        1.471448   -0.631415    0.797288
     10          8           0        1.964824    0.375601    1.482305
     11          1           0       -3.044903   -1.765123   -0.048781
     12          1           0       -0.658928   -2.318873   -0.215364
     13          1           0        0.306769    1.870709   -0.040856
     14          1           0        1.451745   -1.576376   -1.134928
     15          1           0        2.396843    1.329605   -0.797843
     16          1           0        1.682396    0.729373   -2.309095
     17          1           0       -3.762782    0.592399    0.098647
     18          1           0       -2.086317    2.403653    0.087046
     19          1           0        1.252355   -1.559019    1.319095
     20          1           0        3.177516    0.032944   -1.694391
     21          1           0        1.842329    0.314574    2.441226
 ---------------------------------------------------------------------
 Rotational constants (GHZ):           2.5311062           0.9725739           0.9363006
 Standard basis: def2TZVP (5D, 7F)
 There are   426 symmetry adapted cartesian basis functions of A   symmetry.
 There are   376 symmetry adapted basis functions of A   symmetry.
   376 basis functions,   598 primitive gaussians,   426 cartesian basis functions
    36 alpha electrons       36 beta electrons
       nuclear repulsion energy       514.7784048724 Hartrees.
 NAtoms=   21 NActive=   21 NUniq=   21 SFac= 1.00D+00 NAtFMM=   60 NAOKFM=F Big=F
 Integral buffers will be    131072 words long.
 Raffenetti 2 integral format.
 Two-electron integral symmetry is turned on.
 One-electron integrals computed using PRISM.
   1 Symmetry operations used in ECPInt.
 ECPInt:  NShTT=   11935 NPrTT=   35764 LenC2=   11631 LenP2D=   27519.
 LDataN:  DoStor=T MaxTD1= 6 Len=  172
 NBasis=   376 RedAO= T EigKep=  8.09D-06  NBF=   376
 NBsUse=   376 1.00D-06 EigRej= -1.00D+00 NBFU=   376
 ExpMin= 9.52D-02 ExpMax= 2.70D+04 ExpMxC= 9.22D+02 IAcc=3 IRadAn=         5 AccDes= 0.00D+00
 Harris functional with IExCor= 1009 and IRadAn=       5 diagonalized for initial guess.
 HarFok:  IExCor= 1009 AccDes= 0.00D+00 IRadAn=         5 IDoV= 1 UseB2=F ITyADJ=14
 ICtDFT=  3500011 ScaDFX=  1.000000  1.000000  1.000000  1.000000
 FoFCou: FMM=F IPFlag=           0 FMFlag=      100000 FMFlg1=           0
         NFxFlg=           0 DoJE=T BraDBF=F KetDBF=T FulRan=T
         wScrn=  0.000000 ICntrl=       500 IOpCl=  0 I1Cent=   200000004 NGrid=           0
         NMat0=    1 NMatS0=      1 NMatT0=    0 NMatD0=    1 NMtDS0=    0 NMtDT0=    0
 Petite list used in FoFCou.
 Requested convergence on RMS density matrix=1.00D-08 within 128 cycles.
 Requested convergence on MAX density matrix=1.00D-06.
 Requested convergence on             energy=1.00D-06.
 No special actions if energy rises.
 Integral accuracy reduced to 1.0D-05 until final iterations.
 Initial convergence to 1.0D-05 achieved.  Increase integral accuracy.
 SCF Done:  E(RM062X) =  -424.483696199     A.U. after   14 cycles
            NFock= 14  Conv=0.93D-08     -V/T= 2.0048

 **********************************************************************

            Population analysis using the SCF Density.

 **********************************************************************

 Orbital symmetries:
       Occupied  (A) (A) (A) (A) (A) (A) (A) (A) (A) (A) (A) (A)
                 (A) (A) (A) (A) (A) (A) (A) (A) (A) (A) (A) (A)
                 (A) (A) (A) (A) (A) (A) (A) (A) (A) (A) (A) (A)
       Virtual   (A) (A) (A) (A) (A) (A) (A) (A) (A) (A) (A) (A)
                 (A) (A) (A) (A) (A) (A) (A) (A) (A) (A) (A) (A)
                 (A) (A) (A) (A) (A) (A) (A) (A) (A) (A) (A) (A)
                 (A) (A) (A) (A) (A) (A) (A) (A) (A) (A) (A) (A)
                 (A) (A) (A) (A) (A) (A) (A) (A) (A) (A) (A) (A)
                 (A) (A) (A) (A) (A) (A) (A) (A) (A) (A) (A) (A)
                 (A) (A) (A) (A) (A) (A) (A) (A) (A) (A) (A) (A)
                 (A) (A) (A) (A) (A) (A) (A) (A) (A) (A) (A) (A)
                 (A) (A) (A) (A) (A) (A) (A) (A) (A) (A) (A) (A)
                 (A) (A) (A) (A) (A) (A) (A) (A) (A) (A) (A) (A)
                 (A) (A) (A) (A) (A) (A) (A) (A) (A) (A) (A) (A)
                 (A) (A) (A) (A) (A) (A) (A) (A) (A) (A) (A) (A)
                 (A) (A) (A) (A) (A) (A) (A) (A) (A) (A) (A) (A)
                 (A) (A) (A) (A) (A) (A) (A) (A) (A) (A) (A) (A)
                 (A) (A) (A) (A) (A) (A) (A) (A) (A) (A) (A) (A)
                 (A) (A) (A) (A) (A) (A) (A) (A) (A) (A) (A) (A)
                 (A) (A) (A) (A) (A) (A) (A) (A) (A) (A) (A) (A)
                 (A) (A) (A) (A) (A) (A) (A) (A) (A) (A) (A) (A)
                 (A) (A) (A) (A) (A) (A) (A) (A) (A) (A) (A) (A)
                 (A) (A) (A) (A) (A) (A) (A) (A) (A) (A) (A) (A)
                 (A) (A) (A) (A) (A) (A) (A) (A) (A) (A) (A) (A)
                 (A) (A) (A) (A) (A) (A) (A) (A) (A) (A) (A) (A)
                 (A) (A) (A) (A) (A) (A) (A) (A) (A) (A) (A) (A)
                 (A) (A) (A) (A) (A) (A) (A) (A) (A) (A) (A) (A)
                 (A) (A) (A) (A) (A) (A) (A) (A) (A) (A) (A) (A)
                 (A) (A) (A) (A) (A) (A) (A) (A) (A) (A) (A) (A)
                 (A) (A) (A) (A) (A) (A) (A) (A) (A) (A) (A) (A)
                 (A) (A) (A) (A) (A) (A) (A) (A) (A) (A) (A) (A)
                 (A) (A) (A) (A)
 The electronic state is 1-A.
 Alpha  occ. eigenvalues --  -19.85851 -10.84169 -10.75118 -10.74879 -10.72822
 Alpha  occ. eigenvalues --  -10.72557 -10.71878 -10.70581 -10.70576 -10.68470
 Alpha  occ. eigenvalues --   -1.40145  -1.16852  -1.10581  -1.02158  -0.99722
 Alpha  occ. eigenvalues --   -0.96407  -0.88992  -0.86646  -0.83295  -0.82015
 Alpha  occ. eigenvalues --   -0.76985  -0.74003  -0.70992  -0.69479  -0.67918
 Alpha  occ. eigenvalues --   -0.66194  -0.65861  -0.64549  -0.61135  -0.60638
 Alpha  occ. eigenvalues --   -0.59958  -0.59251  -0.56783  -0.54406  -0.48517
 Alpha  occ. eigenvalues --   -0.48106
 Alpha virt. eigenvalues --   -0.22564  -0.14224  -0.10285  -0.07502  -0.06876
 Alpha virt. eigenvalues --   -0.05009  -0.04604  -0.01844  -0.01372  -0.00953
 Alpha virt. eigenvalues --   -0.00245   0.00471   0.02155   0.02788   0.03089
 Alpha virt. eigenvalues --    0.04449   0.04511   0.05272   0.06991   0.08440
 Alpha virt. eigenvalues --    0.09145   0.09726   0.11205   0.11683   0.12055
 Alpha virt. eigenvalues --    0.13029   0.13673   0.13975   0.15014   0.16441
 Alpha virt. eigenvalues --    0.16953   0.18382   0.19981   0.20754   0.21828
 Alpha virt. eigenvalues --    0.22390   0.22728   0.23592   0.24840   0.25920
 Alpha virt. eigenvalues --    0.26899   0.26949   0.27956   0.28730   0.29891
 Alpha virt. eigenvalues --    0.30189   0.30809   0.31631   0.32975   0.34158
 Alpha virt. eigenvalues --    0.34387   0.34678   0.35151   0.36823   0.37141
 Alpha virt. eigenvalues --    0.38176   0.38797   0.39181   0.39670   0.40594
 Alpha virt. eigenvalues --    0.41404   0.42303   0.44103   0.45383   0.47968
 Alpha virt. eigenvalues --    0.49249   0.51302   0.55234   0.56127   0.56752
 Alpha virt. eigenvalues --    0.57676   0.57993   0.59763   0.61359   0.64029
 Alpha virt. eigenvalues --    0.64338   0.66467   0.67778   0.68244   0.72509
 Alpha virt. eigenvalues --    0.72534   0.75393   0.76621   0.77330   0.78200
 Alpha virt. eigenvalues --    0.78343   0.80386   0.82187   0.83749   0.86079
 Alpha virt. eigenvalues --    0.87498   0.88752   0.89708   0.90473   0.92334
 Alpha virt. eigenvalues --    0.94861   0.96160   0.97625   0.98630   1.00813
 Alpha virt. eigenvalues --    1.01076   1.02503   1.03100   1.07159   1.08662
 Alpha virt. eigenvalues --    1.09852   1.11962   1.12334   1.13929   1.14687
 Alpha virt. eigenvalues --    1.16959   1.17731   1.19231   1.20069   1.23838
 Alpha virt. eigenvalues --    1.26425   1.28100   1.30332   1.32685   1.32859
 Alpha virt. eigenvalues --    1.33496   1.35323   1.38264   1.39220   1.40199
 Alpha virt. eigenvalues --    1.42355   1.44208   1.45023   1.46033   1.46894
 Alpha virt. eigenvalues --    1.47586   1.49378   1.49777   1.51390   1.53125
 Alpha virt. eigenvalues --    1.54218   1.56529   1.57748   1.57977   1.59105
 Alpha virt. eigenvalues --    1.59807   1.63269   1.63830   1.65315   1.69521
 Alpha virt. eigenvalues --    1.70620   1.73249   1.74412   1.76460   1.78309
 Alpha virt. eigenvalues --    1.78872   1.82444   1.83383   1.85100   1.88170
 Alpha virt. eigenvalues --    1.88661   1.90734   1.92947   1.96040   1.97746
 Alpha virt. eigenvalues --    1.99542   2.01354   2.03484   2.04557   2.06293
 Alpha virt. eigenvalues --    2.06927   2.09154   2.10416   2.13263   2.14755
 Alpha virt. eigenvalues --    2.18120   2.20007   2.20361   2.22173   2.23674
 Alpha virt. eigenvalues --    2.25220   2.26652   2.28872   2.30428   2.33814
 Alpha virt. eigenvalues --    2.35404   2.37595   2.39858   2.40716   2.41804
 Alpha virt. eigenvalues --    2.43599   2.44535   2.45405   2.47160   2.48673
 Alpha virt. eigenvalues --    2.50348   2.51288   2.53028   2.53207   2.54536
 Alpha virt. eigenvalues --    2.55067   2.55608   2.56950   2.58216   2.58864
 Alpha virt. eigenvalues --    2.59724   2.61019   2.62944   2.63773   2.66013
 Alpha virt. eigenvalues --    2.67732   2.68319   2.69030   2.70403   2.72690
 Alpha virt. eigenvalues --    2.74046   2.75427   2.77128   2.79615   2.81526
 Alpha virt. eigenvalues --    2.83038   2.84145   2.84773   2.87286   2.88648
 Alpha virt. eigenvalues --    2.89517   2.90963   2.92659   2.94653   2.95859
 Alpha virt. eigenvalues --    2.97391   2.98377   2.98480   2.99295   3.00911
 Alpha virt. eigenvalues --    3.01361   3.02436   3.04411   3.05335   3.07533
 Alpha virt. eigenvalues --    3.09391   3.11094   3.12702   3.13548   3.15389
 Alpha virt. eigenvalues --    3.16438   3.17478   3.20137   3.21210   3.22651
 Alpha virt. eigenvalues --    3.25044   3.25151   3.26262   3.28152   3.29312
 Alpha virt. eigenvalues --    3.29854   3.30818   3.33231   3.34669   3.35268
 Alpha virt. eigenvalues --    3.38821   3.41340   3.42435   3.44750   3.47052
 Alpha virt. eigenvalues --    3.48504   3.49827   3.51287   3.52653   3.54017
 Alpha virt. eigenvalues --    3.56821   3.60275   3.63410   3.64370   3.67239
 Alpha virt. eigenvalues --    3.68668   3.72660   3.73638   3.79173   3.81142
 Alpha virt. eigenvalues --    3.82557   3.83374   3.85725   3.86913   3.89827
 Alpha virt. eigenvalues --    3.93199   3.98989   4.00211   4.02034   4.02842
 Alpha virt. eigenvalues --    4.03230   4.06329   4.06719   4.07547   4.10037
 Alpha virt. eigenvalues --    4.11873   4.13903   4.17937   4.21407   4.23436
 Alpha virt. eigenvalues --    4.25740   4.30367   4.35083   4.36854   4.40945
 Alpha virt. eigenvalues --    4.43914   4.47396   4.48335   4.51074   4.55792
 Alpha virt. eigenvalues --    4.57406   4.63880   4.68406   4.71299   4.74011
 Alpha virt. eigenvalues --    4.80236   4.91283   4.98796   5.01944   5.07297
 Alpha virt. eigenvalues --    5.12507   5.15404   5.20885   5.26083   5.34737
 Alpha virt. eigenvalues --    5.43628   5.68518   5.72341   5.94103   6.14221
 Alpha virt. eigenvalues --    6.24242   6.47344   6.61172   6.77976   7.02313
 Alpha virt. eigenvalues --   21.99063  22.36683  22.50472  22.57265  22.64564
 Alpha virt. eigenvalues --   22.71347  22.79423  22.81047  23.17075  43.90107
          Condensed to atoms (all electrons):
               1          2          3          4          5          6
     1  C    4.890140   0.499343  -0.029993  -0.067978  -0.017445   0.481811
     2  C    0.499343   5.020621   0.404355  -0.033993  -0.048243  -0.024598
     3  C   -0.029993   0.404355   5.522979   0.297676  -0.030359  -0.049380
     4  C   -0.067978  -0.033993   0.297676   5.172442   0.449734  -0.008162
     5  C   -0.017445  -0.048243  -0.030359   0.449734   4.916884   0.472193
     6  C    0.481811  -0.024598  -0.049380  -0.008162   0.472193   4.840006
     7  C    0.005356  -0.058908   0.002063  -0.011403   0.010719  -0.003212
     8  C    0.000663   0.001456  -0.018977  -0.019715   0.002769  -0.000462
     9  C   -0.002733   0.019267   0.022080  -0.026501  -0.010104   0.000060
    10  O   -0.000465   0.003669  -0.042595  -0.001511  -0.006276   0.000916
    11  H    0.406995  -0.025896   0.004942   0.000001   0.002721  -0.022968
    12  H   -0.011650   0.397959  -0.036773   0.010562  -0.002334   0.003888
    13  H   -0.001390   0.005241  -0.052559   0.406731   0.000403   0.003422
    14  H   -0.001199  -0.003316  -0.035984   0.009068   0.000248   0.000224
    15  H   -0.000125   0.000379  -0.023081   0.006188   0.002146   0.000010
    16  H    0.000235  -0.000236   0.004155  -0.008912  -0.000520  -0.000105
    17  H   -0.026005   0.002836   0.000858   0.003810  -0.025987   0.406576
    18  H    0.002517   0.000585   0.003273  -0.024166   0.406142  -0.022709
    19  H   -0.001283  -0.007652  -0.030528   0.011371  -0.000648   0.000679
    20  H    0.000002  -0.000593   0.011573   0.000596  -0.000080   0.000002
    21  H    0.000069  -0.000466  -0.005279  -0.000406  -0.000033  -0.000021
               7          8          9         10         11         12
     1  C    0.005356   0.000663  -0.002733  -0.000465   0.406995  -0.011650
     2  C   -0.058908   0.001456   0.019267   0.003669  -0.025896   0.397959
     3  C    0.002063  -0.018977   0.022080  -0.042595   0.004942  -0.036773
     4  C   -0.011403  -0.019715  -0.026501  -0.001511   0.000001   0.010562
     5  C    0.010719   0.002769  -0.010104  -0.006276   0.002721  -0.002334
     6  C   -0.003212  -0.000462   0.000060   0.000916  -0.022968   0.003888
     7  C    5.559161   0.228131   0.163358  -0.062894  -0.000097  -0.006095
     8  C    0.228131   5.034076  -0.016508  -0.004815   0.000007   0.000368
     9  C    0.163358  -0.016508   4.989036   0.355429  -0.000081  -0.001082
    10  O   -0.062894  -0.004815   0.355429   7.833075   0.000003   0.000033
    11  H   -0.000097   0.000007  -0.000081   0.000003   0.449410  -0.001923
    12  H   -0.006095   0.000368  -0.001082   0.000033  -0.001923   0.454524
    13  H    0.005000  -0.007394  -0.004699   0.005699   0.000032   0.000030
    14  H    0.425761  -0.012892  -0.051216   0.001655  -0.000026   0.002480
    15  H   -0.000065   0.395213  -0.014549   0.003047  -0.000001   0.000017
    16  H   -0.052683   0.434204   0.008369  -0.000056   0.000002  -0.000072
    17  H   -0.000003  -0.000002   0.000048   0.000002  -0.002303  -0.000125
    18  H   -0.000120   0.000088  -0.000059  -0.000056  -0.000129   0.000038
    19  H   -0.063562  -0.000077   0.452280  -0.034405  -0.000038   0.001369
    20  H   -0.041102   0.415843  -0.003267  -0.000019  -0.000000  -0.000017
    21  H    0.013548   0.000054  -0.022129   0.306574   0.000001  -0.000015
              13         14         15         16         17         18
     1  C   -0.001390  -0.001199  -0.000125   0.000235  -0.026005   0.002517
     2  C    0.005241  -0.003316   0.000379  -0.000236   0.002836   0.000585
     3  C   -0.052559  -0.035984  -0.023081   0.004155   0.000858   0.003273
     4  C    0.406731   0.009068   0.006188  -0.008912   0.003810  -0.024166
     5  C    0.000403   0.000248   0.002146  -0.000520  -0.025987   0.406142
     6  C    0.003422   0.000224   0.000010  -0.000105   0.406576  -0.022709
     7  C    0.005000   0.425761  -0.000065  -0.052683  -0.000003  -0.000120
     8  C   -0.007394  -0.012892   0.395213   0.434204  -0.000002   0.000088
     9  C   -0.004699  -0.051216  -0.014549   0.008369   0.000048  -0.000059
    10  O    0.005699   0.001655   0.003047  -0.000056   0.000002  -0.000056
    11  H    0.000032  -0.000026  -0.000001   0.000002  -0.002303  -0.000129
    12  H    0.000030   0.002480   0.000017  -0.000072  -0.000125   0.000038
    13  H    0.434849   0.000403   0.002091  -0.001636  -0.000118  -0.001636
    14  H    0.000403   0.463245   0.005620  -0.004643  -0.000001   0.000008
    15  H    0.002091   0.005620   0.501568  -0.027175  -0.000000   0.000021
    16  H   -0.001636  -0.004643  -0.027175   0.471304  -0.000000   0.000006
    17  H   -0.000118  -0.000001  -0.000000  -0.000000   0.447582  -0.002262
    18  H   -0.001636   0.000008   0.000021   0.000006  -0.002262   0.448454
    19  H    0.000318   0.001077   0.000403  -0.000156   0.000004   0.000000
    20  H    0.000135  -0.007040  -0.017294  -0.015535   0.000000  -0.000001
    21  H   -0.000318  -0.000281  -0.000305   0.000021  -0.000001   0.000000
              19         20         21
     1  C   -0.001283   0.000002   0.000069
     2  C   -0.007652  -0.000593  -0.000466
     3  C   -0.030528   0.011573  -0.005279
     4  C    0.011371   0.000596  -0.000406
     5  C   -0.000648  -0.000080  -0.000033
     6  C    0.000679   0.000002  -0.000021
     7  C   -0.063562  -0.041102   0.013548
     8  C   -0.000077   0.415843   0.000054
     9  C    0.452280  -0.003267  -0.022129
    10  O   -0.034405  -0.000019   0.306574
    11  H   -0.000038  -0.000000   0.000001
    12  H    0.001369  -0.000017  -0.000015
    13  H    0.000318   0.000135  -0.000318
    14  H    0.001077  -0.007040  -0.000281
    15  H    0.000403  -0.017294  -0.000305
    16  H   -0.000156  -0.015535   0.000021
    17  H    0.000004   0.000000  -0.000001
    18  H    0.000000  -0.000001   0.000000
    19  H    0.466550   0.000102  -0.009536
    20  H    0.000102   0.464667  -0.000030
    21  H   -0.009536  -0.000030   0.337488
 Mulliken charges:
               1
     1  C   -0.126867
     2  C   -0.151810
     3  C    0.081553
     4  C   -0.165430
     5  C   -0.121932
     6  C   -0.078169
     7  C   -0.112954
     8  C   -0.432030
     9  C    0.143001
    10  O   -0.357011
    11  H    0.189350
    12  H    0.188818
    13  H    0.205393
    14  H    0.206810
    15  H    0.165890
    16  H    0.193433
    17  H    0.195092
    18  H    0.190006
    19  H    0.213731
    20  H    0.192059
    21  H    0.381066
 Sum of Mulliken charges =   1.00000
 Mulliken charges with hydrogens summed into heavy atoms:
               1
     1  C    0.062484
     2  C    0.037008
     3  C    0.081553
     4  C    0.039963
     5  C    0.068074
     6  C    0.116922
     7  C    0.093856
     8  C    0.119353
     9  C    0.356732
    10  O    0.024055
 Electronic spatial extent (au):  <R**2>=           1393.2060
 Charge=              1.0000 electrons
 Dipole moment (field-independent basis, Debye):
    X=              0.5907    Y=             -1.4019    Z=              1.7901  Tot=              2.3492
 Quadrupole moment (field-independent basis, Debye-Ang):
   XX=            -35.9457   YY=            -46.0566   ZZ=            -47.6974
   XY=             -2.7009   XZ=              1.9003   YZ=             -0.3365
 Traceless Quadrupole moment (field-independent basis, Debye-Ang):
   XX=              7.2876   YY=             -2.8234   ZZ=             -4.4642
   XY=             -2.7009   XZ=              1.9003   YZ=             -0.3365
 Octapole moment (field-independent basis, Debye-Ang**2):
  XXX=            -22.1064  YYY=             -1.8587  ZZZ=             29.7384  XYY=             -3.8516
  XXY=             -1.1213  XXZ=              3.2311  XZZ=             31.3641  YZZ=             -0.0788
  YYZ=              2.3563  XYZ=             -1.9564
 Hexadecapole moment (field-independent basis, Debye-Ang**3):
 XXXX=           -969.7240 YYYY=           -310.7278 ZZZZ=           -203.5404 XXXY=             -7.8902
 XXXZ=             -3.3885 YYYX=             -4.4710 YYYZ=              4.6635 ZZZX=             52.6443
 ZZZY=              5.4090 XXYY=           -218.8220 XXZZ=           -211.6904 YYZZ=           -107.0127
 XXYZ=              2.0047 YYXZ=              4.6590 ZZXY=              1.0853
 N-N= 5.147784048724D+02 E-N=-2.003489018371D+03  KE= 4.224568848207D+02
   1 Symmetry operations used in ECPInt.
 ECPInt:  NShTT=   11935 NPrTT=   35764 LenC2=   11631 LenP2D=   27519.
 LDataN:  DoStor=T MaxTD1= 7 Len=  274
 Calling FoFJK, ICntrl=      2127 FMM=F ISym2X=0 I1Cent= 0 IOpClX= 0 NMat=1 NMatS=1 NMatT=0.
 ***** Axes restored to original set *****
 -------------------------------------------------------------------
 Center     Atomic                   Forces (Hartrees/Bohr)
 Number     Number              X              Y              Z
 -------------------------------------------------------------------
      1        6           0.000290144   -0.000168220   -0.001816162
      2        6           0.000602299   -0.001838587    0.005007578
      3        6          -0.021753567    0.001988488   -0.006468520
      4        6           0.002478129    0.001014597   -0.002548507
      5        6           0.001473976   -0.000292304    0.002546131
      6        6           0.003753627    0.002253505   -0.000156044
      7        6           0.009085509   -0.009876533    0.003519609
      8        6           0.000018934   -0.000664598    0.001675336
      9        6           0.007409363    0.010427956   -0.005062523
     10        8           0.001184972    0.000970182    0.006247103
     11        1          -0.000505517    0.000174719   -0.001911073
     12        1           0.001723441    0.001519450   -0.001919027
     13        1           0.000340467   -0.000460980    0.002426380
     14        1          -0.000211169   -0.004590944   -0.002837657
     15        1          -0.000299796   -0.000371797    0.001492730
     16        1          -0.001106099    0.000102557   -0.000104090
     17        1          -0.002006064   -0.000844897   -0.000640746
     18        1          -0.001008955   -0.000906063    0.001426742
     19        1          -0.000871871   -0.001466712    0.001696594
     20        1           0.001166038    0.000060722    0.000346283
     21        1          -0.001763861    0.002969461   -0.002920137
 -------------------------------------------------------------------
 Cartesian Forces:  Max     0.021753567 RMS     0.004193638

 GradGradGradGradGradGradGradGradGradGradGradGradGradGradGradGradGradGrad
 Berny optimization.
 FormGI is forming the generalized inverse of G from B-inverse, IUseBI=4.
 Internal  Forces:  Max     0.009165007 RMS     0.002074773
 Search for a local minimum.
 Step number   1 out of a maximum of  121
 All quantities printed in internal units (Hartrees-Bohrs-Radians)
 Mixed Optimization -- RFO/linear search
 Second derivative matrix not updated -- first step.
 ITU=  0
     Eigenvalues ---    0.00701   0.01970   0.01978   0.02092   0.02129
     Eigenvalues ---    0.02206   0.02222   0.02251   0.02298   0.02305
     Eigenvalues ---    0.02378   0.02821   0.02829   0.03232   0.04054
     Eigenvalues ---    0.05648   0.05975   0.06080   0.07071   0.11849
     Eigenvalues ---    0.13194   0.15997   0.16000   0.16000   0.16000
     Eigenvalues ---    0.16000   0.16000   0.16000   0.16000   0.16000
     Eigenvalues ---    0.17293   0.18596   0.20362   0.21693   0.21999
     Eigenvalues ---    0.22000   0.23837   0.31428   0.31869   0.35022
     Eigenvalues ---    0.35178   0.35207   0.35347   0.35351   0.35973
     Eigenvalues ---    0.36104   0.36128   0.36165   0.36171   0.40315
     Eigenvalues ---    0.42199   0.45677   0.45884   0.47923   0.49482
     Eigenvalues ---    0.53656   0.63436
 RFO step:  Lambda=-3.12064037D-03 EMin= 7.01120440D-03
 Linear search not attempted -- first point.
 Iteration  1 RMS(Cart)=  0.02092612 RMS(Int)=  0.00029958
 Iteration  2 RMS(Cart)=  0.00028507 RMS(Int)=  0.00012952
 Iteration  3 RMS(Cart)=  0.00000008 RMS(Int)=  0.00012952
 Variable       Old X    -DE/DX   Delta X   Delta X   Delta X     New X
                                 (Linear)    (Quad)   (Total)
    R1        2.60376  -0.00043   0.00000  -0.00089  -0.00089   2.60287
    R2        2.62939   0.00065   0.00000   0.00265   0.00261   2.63201
    R3        2.03815   0.00198   0.00000   0.00543   0.00543   2.04358
    R4        2.66878  -0.00235   0.00000  -0.00675  -0.00672   2.66206
    R5        2.04124   0.00299   0.00000   0.00825   0.00825   2.04949
    R6        2.66437  -0.00182   0.00000  -0.00546  -0.00543   2.65894
    R7        2.97461   0.00291   0.00000   0.01207   0.01251   2.98712
    R8        3.37857   0.00674   0.00000   0.07822   0.07799   3.45656
    R9        2.60406  -0.00124   0.00000  -0.00245  -0.00245   2.60161
   R10        2.03881   0.00244   0.00000   0.00670   0.00670   2.04551
   R11        2.62841   0.00262   0.00000   0.00683   0.00680   2.63520
   R12        2.03824   0.00196   0.00000   0.00538   0.00538   2.04362
   R13        2.03920   0.00226   0.00000   0.00622   0.00622   2.04542
   R14        2.84385   0.00291   0.00000   0.00905   0.00905   2.85290
   R15        2.72892  -0.00917   0.00000  -0.03885  -0.03903   2.68989
   R16        2.05109  -0.00139   0.00000  -0.00389  -0.00389   2.04720
   R17        2.05115   0.00125   0.00000   0.00351   0.00351   2.05467
   R18        2.05387   0.00098   0.00000   0.00276   0.00276   2.05664
   R19        2.05639   0.00097   0.00000   0.00275   0.00275   2.05914
   R20        2.48321  -0.00016   0.00000  -0.00025  -0.00025   2.48296
   R21        2.05341  -0.00161   0.00000  -0.00452  -0.00452   2.04889
   R22        1.83046  -0.00236   0.00000  -0.00437  -0.00437   1.82609
    A1        2.09579  -0.00237   0.00000  -0.01009  -0.01010   2.08569
    A2        2.09149   0.00107   0.00000   0.00434   0.00434   2.09583
    A3        2.09590   0.00130   0.00000   0.00575   0.00575   2.10165
    A4        2.10011   0.00086   0.00000  -0.00108  -0.00102   2.09909
    A5        2.09496  -0.00031   0.00000   0.00136   0.00132   2.09628
    A6        2.08797  -0.00055   0.00000  -0.00020  -0.00023   2.08774
    A7        2.07348   0.00170   0.00000   0.01251   0.01238   2.08586
    A8        2.06973   0.00150   0.00000   0.00342   0.00297   2.07270
    A9        1.99462  -0.00052   0.00000  -0.01051  -0.01048   1.98414
   A10        2.10450  -0.00235   0.00000  -0.00337  -0.00393   2.10058
   A11        1.99271   0.00056   0.00000  -0.00722  -0.00724   1.98546
   A12        2.09801  -0.00022   0.00000  -0.00577  -0.00571   2.09230
   A13        2.08740   0.00062   0.00000   0.00601   0.00598   2.09338
   A14        2.09776  -0.00040   0.00000  -0.00026  -0.00030   2.09747
   A15        2.09893  -0.00149   0.00000  -0.00594  -0.00595   2.09298
   A16        2.08915   0.00059   0.00000   0.00203   0.00203   2.09119
   A17        2.09510   0.00090   0.00000   0.00391   0.00391   2.09901
   A18        2.09992   0.00152   0.00000   0.01022   0.01018   2.11010
   A19        2.09136  -0.00080   0.00000  -0.00533  -0.00531   2.08604
   A20        2.09190  -0.00073   0.00000  -0.00491  -0.00489   2.08701
   A21        2.06172  -0.00143   0.00000  -0.00418  -0.00424   2.05749
   A22        1.91286  -0.00364   0.00000  -0.02700  -0.02691   1.88595
   A23        2.10494  -0.00079   0.00000  -0.00142  -0.00151   2.10343
   A24        1.98309   0.00441   0.00000   0.02268   0.02261   2.00571
   A25        2.02074  -0.00402   0.00000  -0.03106  -0.03101   1.98973
   A26        1.95327   0.00130   0.00000   0.00742   0.00742   1.96069
   A27        1.93213  -0.00078   0.00000  -0.00504  -0.00503   1.92710
   A28        1.89017  -0.00005   0.00000   0.00044   0.00044   1.89061
   A29        1.91455  -0.00045   0.00000  -0.00414  -0.00413   1.91042
   A30        1.88597  -0.00055   0.00000  -0.00294  -0.00295   1.88302
   A31        1.88578   0.00053   0.00000   0.00433   0.00433   1.89011
   A32        2.01173  -0.00013   0.00000   0.00929   0.00951   2.02124
   A33        1.83894  -0.00013   0.00000  -0.00724  -0.00701   1.83193
   A34        2.10917  -0.00323   0.00000  -0.02331  -0.02309   2.08608
   A35        2.08528   0.00276   0.00000   0.02339   0.02331   2.10859
   A36        2.07096   0.00043   0.00000   0.00178   0.00165   2.07261
   A37        2.00458  -0.00700   0.00000  -0.04291  -0.04291   1.96167
    D1       -0.00188   0.00015   0.00000   0.00013   0.00010  -0.00179
    D2       -3.12529   0.00007   0.00000  -0.00495  -0.00499  -3.13028
    D3        3.13462   0.00001   0.00000  -0.00128  -0.00129   3.13334
    D4        0.01121  -0.00007   0.00000  -0.00635  -0.00637   0.00484
    D5       -0.00325  -0.00019   0.00000  -0.00752  -0.00752  -0.01077
    D6       -3.14044  -0.00014   0.00000  -0.00336  -0.00334   3.13940
    D7       -3.13974  -0.00005   0.00000  -0.00611  -0.00613   3.13732
    D8        0.00625   0.00000   0.00000  -0.00194  -0.00195   0.00430
    D9        0.01248   0.00004   0.00000   0.00920   0.00929   0.02177
   D10       -2.84798  -0.00291   0.00000  -0.03885  -0.03891  -2.88689
   D11        2.44770   0.00257   0.00000  -0.00121  -0.00133   2.44637
   D12        3.13596   0.00012   0.00000   0.01427   0.01437  -3.13286
   D13        0.27550  -0.00282   0.00000  -0.03378  -0.03383   0.24167
   D14       -0.71200   0.00266   0.00000   0.00386   0.00375  -0.70825
   D15       -0.01823  -0.00018   0.00000  -0.01121  -0.01128  -0.02951
   D16        3.11767  -0.00036   0.00000  -0.01531  -0.01538   3.10229
   D17        2.83646   0.00348   0.00000   0.03902   0.03889   2.87536
   D18       -0.31082   0.00330   0.00000   0.03491   0.03480  -0.27602
   D19       -2.45419  -0.00230   0.00000   0.00046   0.00057  -2.45361
   D20        0.68171  -0.00248   0.00000  -0.00365  -0.00352   0.67819
   D21        2.53199   0.00275   0.00000   0.01308   0.01303   2.54503
   D22        0.22339   0.00136   0.00000   0.01156   0.01139   0.23478
   D23       -0.32331  -0.00094   0.00000  -0.03851  -0.03830  -0.36161
   D24       -2.63191  -0.00233   0.00000  -0.04002  -0.03994  -2.67185
   D25       -2.44948  -0.00237   0.00000  -0.02968  -0.02976  -2.47924
   D26       -0.13147  -0.00200   0.00000  -0.02620  -0.02607  -0.15754
   D27        0.01896   0.00055   0.00000  -0.03133  -0.03150  -0.01255
   D28        2.33697   0.00092   0.00000  -0.02785  -0.02782   2.30915
   D29        0.01341   0.00012   0.00000   0.00387   0.00387   0.01728
   D30       -3.13097   0.00003   0.00000   0.00261   0.00262  -3.12835
   D31       -3.12246   0.00029   0.00000   0.00798   0.00795  -3.11450
   D32        0.01635   0.00021   0.00000   0.00672   0.00671   0.02306
   D33       -0.00256   0.00006   0.00000   0.00549   0.00551   0.00295
   D34        3.13464   0.00000   0.00000   0.00132   0.00133   3.13597
   D35       -3.14135   0.00014   0.00000   0.00676   0.00676  -3.13459
   D36       -0.00416   0.00009   0.00000   0.00259   0.00258  -0.00158
   D37        1.09488   0.00194   0.00000   0.00652   0.00667   1.10155
   D38       -1.04680   0.00217   0.00000   0.01025   0.01040  -1.03640
   D39       -3.11121   0.00200   0.00000   0.00764   0.00779  -3.10342
   D40       -0.39599  -0.00231   0.00000  -0.04089  -0.04106  -0.43705
   D41       -2.53767  -0.00209   0.00000  -0.03716  -0.03733  -2.57500
   D42        1.68111  -0.00225   0.00000  -0.03977  -0.03994   1.64117
   D43       -2.91131  -0.00036   0.00000  -0.01476  -0.01475  -2.92606
   D44        1.23019  -0.00014   0.00000  -0.01104  -0.01102   1.21917
   D45       -0.83421  -0.00030   0.00000  -0.01365  -0.01363  -0.84784
   D46        0.19107  -0.00120   0.00000  -0.00401  -0.00399   0.18707
   D47       -2.74640  -0.00106   0.00000  -0.01480  -0.01508  -2.76148
   D48        2.69369  -0.00033   0.00000  -0.01232  -0.01208   2.68161
   D49       -0.24378  -0.00018   0.00000  -0.02311  -0.02317  -0.26695
   D50        1.88576  -0.00018   0.00000  -0.00450  -0.00411   1.88166
   D51        3.02580  -0.00040   0.00000  -0.01807  -0.01838   3.00742
   D52       -0.31828  -0.00028   0.00000  -0.00486  -0.00495  -0.32323
         Item               Value     Threshold  Converged?
 Maximum Force            0.009165     0.000450     NO 
 RMS     Force            0.002075     0.000300     NO 
 Maximum Displacement     0.092024     0.001800     NO 
 RMS     Displacement     0.020953     0.001200     NO 
 Predicted change in Energy=-1.614712D-03
 GradGradGradGradGradGradGradGradGradGradGradGradGradGradGradGradGradGrad

                          Input orientation:                          
 ---------------------------------------------------------------------
 Center     Atomic      Atomic             Coordinates (Angstroms)
 Number     Number       Type             X           Y           Z
 ---------------------------------------------------------------------
      1          6           0       16.190918   23.080914   70.922031
      2          6           0       17.370510   23.675251   71.312542
      3          6           0       17.787540   23.610093   72.656522
      4          6           0       17.003431   22.910734   73.592395
      5          6           0       15.821017   22.327056   73.196717
      6          6           0       15.414219   22.412925   71.865648
      7          6           0       18.939013   24.577506   73.143226
      8          6           0       18.873356   25.096998   74.559202
      9          6           0       19.586035   23.342690   72.855593
     10          8           0       19.940963   22.552215   73.843307
     11          1           0       15.869865   23.139340   69.891024
     12          1           0       17.977726   24.206930   70.588086
     13          1           0       17.335594   22.825213   74.619055
     14          1           0       19.082319   25.337334   72.384458
     15          1           0       18.945111   24.300175   75.295481
     16          1           0       17.951928   25.654314   74.716755
     17          1           0       14.486183   21.947513   71.559536
     18          1           0       15.213092   21.800296   73.919530
     19          1           0       19.948873   23.125126   71.857317
     20          1           0       19.713213   25.773490   74.715196
     21          1           0       20.261222   21.695245   73.532143
 ---------------------------------------------------------------------
                    Distance matrix (angstroms):
                    1          2          3          4          5
     1  C    0.000000
     2  C    1.377379   0.000000
     3  C    2.416131   1.408702   0.000000
     4  C    2.796423   2.432481   1.407050   0.000000
     5  C    2.424731   2.787234   2.409400   1.376715   0.000000
     6  C    1.392797   2.393004   2.773328   2.398971   1.394490
     7  C    3.837384   2.574037   1.580714   2.593523   3.845684
     8  C    4.948643   3.849767   2.647654   3.034977   4.341165
     9  C    3.915866   2.720322   1.829130   2.720167   3.914491
    10  O    4.782908   3.777989   2.676713   2.969947   4.176450
    11  H    1.081418   2.135380   3.398097   3.877806   3.404379
    12  H    2.138250   1.084542   2.161206   3.413979   3.871728
    13  H    3.878614   3.414207   2.161441   1.082440   2.136621
    14  H    3.948458   2.615685   2.175737   3.416032   4.511943
    15  H    5.310295   4.328244   2.963155   2.932775   4.249467
    16  H    4.911565   3.980377   2.906961   3.113047   4.233432
    17  H    2.144092   3.371265   3.855711   3.375921   2.146204
    18  H    3.403106   3.868630   3.390920   2.131995   1.081438
    19  H    3.872846   2.692094   2.354842   3.425213   4.412494
    20  H    5.834777   4.633456   3.553399   4.098655   5.415984
    21  H    5.029924   4.147682   3.248455   3.477678   4.497457
                    6          7          8          9         10
     6  C    0.000000
     7  C    4.329178   0.000000
     8  C    5.140535   1.509692   0.000000
     9  C    4.387312   1.423426   2.547114   0.000000
    10  O    4.941857   2.365549   2.851001   1.313927   0.000000
    11  H    2.152773   4.697318   5.886022   4.758144   5.704304
    12  H    3.379673   2.755020   4.167029   2.911212   4.145943
    13  H    3.382737   2.796346   2.743957   2.905523   2.732079
    14  H    4.719776   1.083330   2.197939   2.110522   3.259202
    15  H    5.271874   2.170058   1.087282   2.698261   2.481107
    16  H    5.007532   2.147055   1.088326   3.387896   3.787108
    17  H    1.082387   5.408569   6.177744   5.443783   5.944400
    18  H    2.152719   4.711478   4.967389   4.757475   4.787896
    19  H    4.590249   2.186958   3.513573   1.084223   2.066990
    20  H    6.155865   2.121522   1.089650   3.063183   3.344948
    21  H    5.175491   3.194828   3.814832   1.904645   0.966326
                   11         12         13         14         15
    11  H    0.000000
    12  H    2.463477   0.000000
    13  H    4.959971   4.309314   0.000000
    14  H    4.622580   2.392674   3.788829   0.000000
    15  H    6.325569   4.806671   2.285522   3.093312   0.000000
    16  H    5.826470   4.375099   2.897107   2.611105   1.776240
    17  H    2.473653   4.270779   4.272019   5.770255   6.274897
    18  H    4.295725   4.953142   2.458618   5.462417   4.697935
    19  H    4.528223   2.581989   3.813970   2.433651   3.769516
    20  H    6.706914   4.743318   3.788754   2.453691   1.759935
    21  H    5.884485   4.493372   3.319262   3.996474   3.409863
                   16         17         18         19         20
    16  H    0.000000
    17  H    5.976603   0.000000
    18  H    4.794814   2.473791   0.000000
    19  H    4.308244   5.596107   5.332496   0.000000
    20  H    1.765313   7.205423   6.055613   3.903440   0.000000
    21  H    4.733960   6.107854   5.064061   2.224222   4.281591
                   21
    21  H    0.000000
 Stoichiometry    C9H11O(1+)
 Framework group  C1[X(C9H11O)]
 Deg. of freedom    57
 Full point group                 C1      NOp   1
 Largest Abelian subgroup         C1      NOp   1
 Largest concise Abelian subgroup C1      NOp   1
                         Standard orientation:                         
 ---------------------------------------------------------------------
 Center     Atomic      Atomic             Coordinates (Angstroms)
 Number     Number       Type             X           Y           Z
 ---------------------------------------------------------------------
      1          6           0       -2.324115   -0.978549   -0.061304
      2          6           0       -0.984959   -1.281240   -0.171816
      3          6           0       -0.022299   -0.252783   -0.173554
      4          6           0       -0.436711    1.084701   -0.035025
      5          6           0       -1.777527    1.380357    0.065688
      6          6           0       -2.719506    0.352224    0.050916
      7          6           0        1.448391   -0.588539   -0.645778
      8          6           0        2.215466    0.483067   -1.382274
      9          6           0        1.487902   -0.658404    0.775384
     10          8           0        2.017805    0.331484    1.457825
     11          1           0       -3.061068   -1.769952   -0.067986
     12          1           0       -0.666808   -2.313381   -0.270290
     13          1           0        0.299473    1.877415    0.001224
     14          1           0        1.431740   -1.555360   -1.134228
     15          1           0        2.389352    1.363086   -0.767853
     16          1           0        1.687706    0.772480   -2.289006
     17          1           0       -3.771909    0.590592    0.135721
     18          1           0       -2.095600    2.409672    0.159757
     19          1           0        1.253773   -1.582009    1.292760
     20          1           0        3.185558    0.076106   -1.666245
     21          1           0        1.885490    0.234472    2.410122
 ---------------------------------------------------------------------
 Rotational constants (GHZ):           2.5575826           0.9654376           0.9250227
 Standard basis: def2TZVP (5D, 7F)
 There are   426 symmetry adapted cartesian basis functions of A   symmetry.
 There are   376 symmetry adapted basis functions of A   symmetry.
   376 basis functions,   598 primitive gaussians,   426 cartesian basis functions
    36 alpha electrons       36 beta electrons
       nuclear repulsion energy       514.1469391829 Hartrees.
 NAtoms=   21 NActive=   21 NUniq=   21 SFac= 1.00D+00 NAtFMM=   60 NAOKFM=F Big=F
 Integral buffers will be    131072 words long.
 Raffenetti 2 integral format.
 Two-electron integral symmetry is turned on.
 One-electron integrals computed using PRISM.
   1 Symmetry operations used in ECPInt.
 ECPInt:  NShTT=   11935 NPrTT=   35764 LenC2=   11622 LenP2D=   27494.
 LDataN:  DoStor=T MaxTD1= 6 Len=  172
 NBasis=   376 RedAO= T EigKep=  8.14D-06  NBF=   376
 NBsUse=   376 1.00D-06 EigRej= -1.00D+00 NBFU=   376
 Initial guess from the checkpoint file:  "/home/data/vip13t32/docs/g16out/mol_for_md/H_RPP/vac.chk"
 B after Tr=    -0.000000   -0.000000    0.000000
         Rot=    0.999921   -0.012190   -0.002916    0.000725 Ang=  -1.44 deg.
 ExpMin= 9.52D-02 ExpMax= 2.70D+04 ExpMxC= 9.22D+02 IAcc=3 IRadAn=         5 AccDes= 0.00D+00
 Harris functional with IExCor= 1009 and IRadAn=       5 diagonalized for initial guess.
 HarFok:  IExCor= 1009 AccDes= 0.00D+00 IRadAn=         5 IDoV= 1 UseB2=F ITyADJ=14
 ICtDFT=  3500011 ScaDFX=  1.000000  1.000000  1.000000  1.000000
 FoFCou: FMM=F IPFlag=           0 FMFlag=      100000 FMFlg1=           0
         NFxFlg=           0 DoJE=T BraDBF=F KetDBF=T FulRan=T
         wScrn=  0.000000 ICntrl=       500 IOpCl=  0 I1Cent=   200000004 NGrid=           0
         NMat0=    1 NMatS0=      1 NMatT0=    0 NMatD0=    1 NMtDS0=    0 NMtDT0=    0
 Petite list used in FoFCou.
 Requested convergence on RMS density matrix=1.00D-08 within 128 cycles.
 Requested convergence on MAX density matrix=1.00D-06.
 Requested convergence on             energy=1.00D-06.
 No special actions if energy rises.
 Integral accuracy reduced to 1.0D-05 until final iterations.
 Initial convergence to 1.0D-05 achieved.  Increase integral accuracy.
 SCF Done:  E(RM062X) =  -424.485667503     A.U. after   12 cycles
            NFock= 12  Conv=0.40D-08     -V/T= 2.0048
   1 Symmetry operations used in ECPInt.
 ECPInt:  NShTT=   11935 NPrTT=   35764 LenC2=   11622 LenP2D=   27494.
 LDataN:  DoStor=T MaxTD1= 7 Len=  274
 Calling FoFJK, ICntrl=      2127 FMM=F ISym2X=0 I1Cent= 0 IOpClX= 0 NMat=1 NMatS=1 NMatT=0.
 ***** Axes restored to original set *****
 -------------------------------------------------------------------
 Center     Atomic                   Forces (Hartrees/Bohr)
 Number     Number              X              Y              Z
 -------------------------------------------------------------------
      1        6          -0.001278352   -0.000965621    0.000134657
      2        6           0.003652155    0.000223643    0.002214504
      3        6          -0.015083039    0.001812674   -0.003112759
      4        6           0.004554126    0.000650290   -0.000305289
      5        6          -0.001184530   -0.000586338   -0.001039140
      6        6           0.000486316    0.000078149    0.000162308
      7        6           0.001034249    0.000277339    0.002126448
      8        6           0.000085233    0.000443193    0.000202555
      9        6           0.010843999    0.001349165    0.002973115
     10        8          -0.000814402   -0.000404620   -0.002121464
     11        1          -0.000074591   -0.000077901    0.000259405
     12        1          -0.000147294    0.000352801    0.000088982
     13        1          -0.000249253    0.000318826    0.000091233
     14        1          -0.000989326   -0.000257821   -0.001180505
     15        1          -0.000323365    0.000065905   -0.000339251
     16        1           0.000067366   -0.000103172   -0.000349361
     17        1          -0.000094951   -0.000011904    0.000085404
     18        1          -0.000137654    0.000047498   -0.000323601
     19        1          -0.000867579   -0.001655383   -0.000023763
     20        1           0.000179735   -0.000230659    0.000145714
     21        1           0.000341158   -0.001326063    0.000310807
 -------------------------------------------------------------------
 Cartesian Forces:  Max     0.015083039 RMS     0.002625014

 GradGradGradGradGradGradGradGradGradGradGradGradGradGradGradGradGradGrad
 Berny optimization.
 Using GEDIIS/GDIIS optimizer.
 FormGI is forming the generalized inverse of G from B-inverse, IUseBI=4.
 Internal  Forces:  Max     0.006546633 RMS     0.000949084
 Search for a local minimum.
 Step number   2 out of a maximum of  121
 All quantities printed in internal units (Hartrees-Bohrs-Radians)
 Mixed Optimization -- En-DIIS/RFO-DIIS
 Update second derivatives using D2CorX and points    1    2
 DE= -1.97D-03 DEPred=-1.61D-03 R= 1.22D+00
 TightC=F SS=  1.41D+00  RLast= 1.85D-01 DXNew= 5.0454D-01 5.5575D-01
 Trust test= 1.22D+00 RLast= 1.85D-01 DXMaxT set to 5.05D-01
 ITU=  1  0
 Use linear search instead of GDIIS.
     Eigenvalues ---    0.00692   0.01768   0.01959   0.02092   0.02132
     Eigenvalues ---    0.02170   0.02207   0.02221   0.02262   0.02297
     Eigenvalues ---    0.02309   0.02817   0.02869   0.03133   0.03843
     Eigenvalues ---    0.05616   0.05954   0.06078   0.06409   0.10483
     Eigenvalues ---    0.12134   0.15973   0.15998   0.15999   0.15999
     Eigenvalues ---    0.16000   0.16000   0.16000   0.16000   0.16520
     Eigenvalues ---    0.17570   0.18843   0.20755   0.21872   0.21999
     Eigenvalues ---    0.22351   0.24152   0.31831   0.34449   0.35033
     Eigenvalues ---    0.35186   0.35239   0.35348   0.35586   0.36022
     Eigenvalues ---    0.36111   0.36142   0.36168   0.37610   0.40503
     Eigenvalues ---    0.42242   0.45692   0.46561   0.47993   0.50244
     Eigenvalues ---    0.54390   0.63444
 RFO step:  Lambda=-1.20535660D-03 EMin= 6.91568283D-03
 Quartic linear search produced a step of  0.33331.
 Iteration  1 RMS(Cart)=  0.01601528 RMS(Int)=  0.00034121
 Iteration  2 RMS(Cart)=  0.00030833 RMS(Int)=  0.00023322
 Iteration  3 RMS(Cart)=  0.00000011 RMS(Int)=  0.00023322
 Variable       Old X    -DE/DX   Delta X   Delta X   Delta X     New X
                                 (Linear)    (Quad)   (Total)
    R1        2.60287   0.00136  -0.00030   0.00358   0.00328   2.60615
    R2        2.63201  -0.00068   0.00087  -0.00142  -0.00064   2.63136
    R3        2.04358  -0.00023   0.00181  -0.00061   0.00120   2.04479
    R4        2.66206  -0.00270  -0.00224  -0.00883  -0.01098   2.65108
    R5        2.04949   0.00003   0.00275   0.00046   0.00321   2.05269
    R6        2.65894  -0.00234  -0.00181  -0.00763  -0.00935   2.64959
    R7        2.98712   0.00179   0.00417   0.00685   0.01153   2.99865
    R8        3.45656   0.00655   0.02599   0.07618   0.10177   3.55833
    R9        2.60161   0.00145  -0.00082   0.00378   0.00297   2.60458
   R10        2.04551  -0.00002   0.00223   0.00022   0.00246   2.04797
   R11        2.63520  -0.00089   0.00227  -0.00182   0.00036   2.63556
   R12        2.04362  -0.00016   0.00179  -0.00037   0.00143   2.04505
   R13        2.04542   0.00006   0.00207   0.00049   0.00256   2.04798
   R14        2.85290  -0.00026   0.00302  -0.00070   0.00232   2.85522
   R15        2.68989   0.00253  -0.01301   0.00262  -0.01043   2.67946
   R16        2.04720   0.00052  -0.00130   0.00176   0.00046   2.04766
   R17        2.05467  -0.00030   0.00117  -0.00097   0.00020   2.05486
   R18        2.05664  -0.00016   0.00092  -0.00049   0.00044   2.05707
   R19        2.05914   0.00002   0.00092   0.00018   0.00109   2.06023
   R20        2.48296  -0.00045  -0.00008  -0.00094  -0.00102   2.48194
   R21        2.04889   0.00006  -0.00151   0.00005  -0.00146   2.04743
   R22        1.82609   0.00119  -0.00146   0.00273   0.00128   1.82737
    A1        2.08569  -0.00002  -0.00337  -0.00013  -0.00350   2.08219
    A2        2.09583   0.00018   0.00145   0.00138   0.00283   2.09866
    A3        2.10165  -0.00015   0.00192  -0.00125   0.00067   2.10232
    A4        2.09909  -0.00045  -0.00034  -0.00393  -0.00409   2.09500
    A5        2.09628   0.00027   0.00044   0.00235   0.00270   2.09899
    A6        2.08774   0.00018  -0.00008   0.00151   0.00134   2.08908
    A7        2.08586   0.00126   0.00412   0.00796   0.01170   2.09756
    A8        2.07270  -0.00062   0.00099   0.00006   0.00042   2.07312
    A9        1.98414  -0.00039  -0.00349  -0.00770  -0.01131   1.97284
   A10        2.10058  -0.00040  -0.00131   0.00103  -0.00126   2.09931
   A11        1.98546  -0.00078  -0.00241  -0.01377  -0.01602   1.96944
   A12        2.09230  -0.00044  -0.00190  -0.00396  -0.00569   2.08661
   A13        2.09338   0.00028   0.00199   0.00259   0.00449   2.09787
   A14        2.09747   0.00016  -0.00010   0.00143   0.00123   2.09870
   A15        2.09298  -0.00011  -0.00198  -0.00041  -0.00240   2.09058
   A16        2.09119   0.00037   0.00068   0.00280   0.00348   2.09467
   A17        2.09901  -0.00027   0.00130  -0.00239  -0.00108   2.09792
   A18        2.11010  -0.00025   0.00339   0.00016   0.00346   2.11356
   A19        2.08604   0.00022  -0.00177   0.00074  -0.00099   2.08505
   A20        2.08701   0.00002  -0.00163  -0.00089  -0.00248   2.08453
   A21        2.05749  -0.00068  -0.00141  -0.00421  -0.00583   2.05166
   A22        1.88595  -0.00094  -0.00897  -0.02034  -0.02943   1.85652
   A23        2.10343  -0.00076  -0.00050   0.00250   0.00187   2.10530
   A24        2.00571   0.00090   0.00754   0.00097   0.00829   2.01400
   A25        1.98973  -0.00028  -0.01034  -0.00492  -0.01501   1.97472
   A26        1.96069  -0.00023   0.00247  -0.00222   0.00025   1.96094
   A27        1.92710  -0.00046  -0.00168  -0.00436  -0.00604   1.92106
   A28        1.89061   0.00023   0.00015   0.00290   0.00305   1.89365
   A29        1.91042   0.00022  -0.00138  -0.00015  -0.00154   1.90888
   A30        1.88302   0.00005  -0.00098   0.00108   0.00009   1.88311
   A31        1.89011   0.00021   0.00144   0.00312   0.00457   1.89468
   A32        2.02124   0.00042   0.00317  -0.00884  -0.00545   2.01579
   A33        1.83193  -0.00007  -0.00234  -0.01478  -0.01681   1.81512
   A34        2.08608   0.00126  -0.00770   0.01421   0.00613   2.09221
   A35        2.10859   0.00016   0.00777   0.01110   0.01806   2.12665
   A36        2.07261  -0.00112   0.00055  -0.01433  -0.01471   2.05790
   A37        1.96167   0.00133  -0.01430   0.00937  -0.00494   1.95673
    D1       -0.00179  -0.00011   0.00003  -0.00559  -0.00555  -0.00733
    D2       -3.13028  -0.00003  -0.00166  -0.00024  -0.00189  -3.13217
    D3        3.13334  -0.00010  -0.00043  -0.00521  -0.00563   3.12770
    D4        0.00484  -0.00002  -0.00212   0.00014  -0.00197   0.00287
    D5       -0.01077  -0.00002  -0.00251  -0.00103  -0.00353  -0.01430
    D6        3.13940  -0.00002  -0.00111  -0.00137  -0.00249   3.13690
    D7        3.13732  -0.00004  -0.00204  -0.00142  -0.00345   3.13386
    D8        0.00430  -0.00004  -0.00065  -0.00177  -0.00241   0.00188
    D9        0.02177   0.00027   0.00310   0.01288   0.01612   0.03789
   D10       -2.88689  -0.00081  -0.01297  -0.03041  -0.04349  -2.93037
   D11        2.44637   0.00003  -0.00044  -0.01120  -0.01167   2.43470
   D12       -3.13286   0.00019   0.00479   0.00756   0.01249  -3.12036
   D13        0.24167  -0.00089  -0.01128  -0.03573  -0.04711   0.19456
   D14       -0.70825  -0.00005   0.00125  -0.01652  -0.01530  -0.72355
   D15       -0.02951  -0.00027  -0.00376  -0.01343  -0.01733  -0.04685
   D16        3.10229  -0.00015  -0.00512  -0.00669  -0.01195   3.09034
   D17        2.87536   0.00081   0.01296   0.03045   0.04344   2.91880
   D18       -0.27602   0.00093   0.01160   0.03720   0.04882  -0.22720
   D19       -2.45361  -0.00018   0.00019   0.00833   0.00863  -2.44498
   D20        0.67819  -0.00006  -0.00117   0.01508   0.01401   0.69220
   D21        2.54503   0.00031   0.00434  -0.00010   0.00428   2.54931
   D22        0.23478   0.00057   0.00380   0.02299   0.02639   0.26118
   D23       -0.36161  -0.00102  -0.01276  -0.04471  -0.05716  -0.41877
   D24       -2.67185  -0.00075  -0.01331  -0.02163  -0.03505  -2.70691
   D25       -2.47924   0.00037  -0.00992   0.02111   0.01095  -2.46829
   D26       -0.15754  -0.00089  -0.00869  -0.01933  -0.02797  -0.18551
   D27       -0.01255   0.00100  -0.01050   0.00746  -0.00317  -0.01572
   D28        2.30915  -0.00027  -0.00927  -0.03298  -0.04208   2.26707
   D29        0.01728   0.00012   0.00129   0.00677   0.00805   0.02533
   D30       -3.12835   0.00012   0.00087   0.00632   0.00718  -3.12117
   D31       -3.11450  -0.00001   0.00265   0.00000   0.00265  -3.11186
   D32        0.02306  -0.00001   0.00224  -0.00046   0.00178   0.02483
   D33        0.00295   0.00002   0.00184   0.00041   0.00224   0.00519
   D34        3.13597   0.00002   0.00044   0.00077   0.00121   3.13717
   D35       -3.13459   0.00002   0.00225   0.00086   0.00310  -3.13149
   D36       -0.00158   0.00002   0.00086   0.00121   0.00207   0.00049
   D37        1.10155   0.00064   0.00222   0.00109   0.00350   1.10505
   D38       -1.03640   0.00085   0.00347   0.00600   0.00964  -1.02676
   D39       -3.10342   0.00072   0.00260   0.00298   0.00577  -3.09765
   D40       -0.43705  -0.00083  -0.01369  -0.03746  -0.05127  -0.48832
   D41       -2.57500  -0.00062  -0.01244  -0.03255  -0.04513  -2.62013
   D42        1.64117  -0.00075  -0.01331  -0.03557  -0.04901   1.59216
   D43       -2.92606  -0.00054  -0.00492  -0.03336  -0.03834  -2.96439
   D44        1.21917  -0.00033  -0.00367  -0.02846  -0.03219   1.18698
   D45       -0.84784  -0.00046  -0.00454  -0.03147  -0.03607  -0.88391
   D46        0.18707   0.00086  -0.00133   0.03776   0.03681   0.22388
   D47       -2.76148  -0.00079  -0.00503  -0.02662  -0.03210  -2.79358
   D48        2.68161   0.00098  -0.00403   0.03570   0.03206   2.71366
   D49       -0.26695  -0.00066  -0.00772  -0.02867  -0.03685  -0.30380
   D50        1.88166  -0.00005  -0.00137  -0.01309  -0.01393   1.86773
   D51        3.00742  -0.00100  -0.00613  -0.03288  -0.03901   2.96840
   D52       -0.32323   0.00074  -0.00165   0.03291   0.03074  -0.29249
         Item               Value     Threshold  Converged?
 Maximum Force            0.006547     0.000450     NO 
 RMS     Force            0.000949     0.000300     NO 
 Maximum Displacement     0.050867     0.001800     NO 
 RMS     Displacement     0.016011     0.001200     NO 
 Predicted change in Energy=-7.824126D-04
 GradGradGradGradGradGradGradGradGradGradGradGradGradGradGradGradGradGrad

                          Input orientation:                          
 ---------------------------------------------------------------------
 Center     Atomic      Atomic             Coordinates (Angstroms)
 Number     Number       Type             X           Y           Z
 ---------------------------------------------------------------------
      1          6           0       16.185996   23.083575   70.920310
      2          6           0       17.358789   23.690699   71.317703
      3          6           0       17.760622   23.630602   72.660467
      4          6           0       16.996377   22.915737   73.593630
      5          6           0       15.819489   22.319623   73.194569
      6          6           0       15.415687   22.406912   71.862484
      7          6           0       18.943984   24.569411   73.146554
      8          6           0       18.878726   25.101520   74.559167
      9          6           0       19.611574   23.350864   72.863833
     10          8           0       19.957904   22.551356   73.846596
     11          1           0       15.866313   23.138757   69.888032
     12          1           0       17.967294   24.230148   70.597541
     13          1           0       17.331233   22.829275   74.620708
     14          1           0       19.077489   25.317358   72.373972
     15          1           0       18.922060   24.308723   75.302139
     16          1           0       17.966169   25.678194   74.699318
     17          1           0       14.491381   21.932591   71.553978
     18          1           0       15.214217   21.782110   73.912807
     19          1           0       19.950478   23.103031   71.865038
     20          1           0       19.733060   25.759215   74.720869
     21          1           0       20.263283   21.691654   73.526048
 ---------------------------------------------------------------------
                    Distance matrix (angstroms):
                    1          2          3          4          5
     1  C    0.000000
     2  C    1.379117   0.000000
     3  C    2.409737   1.402889   0.000000
     4  C    2.798486   2.431410   1.402104   0.000000
     5  C    2.426974   2.787817   2.402484   1.378285   0.000000
     6  C    1.392458   2.391765   2.762773   2.398823   1.394678
     7  C    3.843224   2.574815   1.586816   2.593778   3.850496
     8  C    4.956226   3.848080   2.649305   3.041899   4.354310
     9  C    3.947570   2.753370   1.882985   2.749762   3.943698
    10  O    4.803509   3.801158   2.720243   2.994563   4.195870
    11  H    1.082054   2.139178   3.393629   3.880495   3.406811
    12  H    2.142856   1.086239   2.158201   3.412756   3.873980
    13  H    3.881904   3.413599   2.160797   1.083740   2.139857
    14  H    3.932386   2.591459   2.159019   3.403877   4.502706
    15  H    5.309186   4.324523   2.964324   2.927058   4.245506
    16  H    4.917517   3.969178   2.896860   3.129571   4.260576
    17  H    2.144299   3.371765   3.846491   3.376649   2.145973
    18  H    3.404879   3.869944   3.386659   2.136137   1.082192
    19  H    3.881265   2.713260   2.388830   3.427801   4.409813
    20  H    5.846791   4.636536   3.559039   4.104322   5.429219
[...]
      3          6           0       -0.086341   -0.289438   -0.230674
      4          6           0       -0.478525    1.050842   -0.252382
      5          6           0       -1.817195    1.371737   -0.114135
      6          6           0       -2.757187    0.365783    0.082131
      7          6           0        1.403560   -0.686684   -0.490964
      8          6           0        2.182117    0.154665   -1.481091
      9          6           0        1.628863   -0.468257    0.915653
     10          8           0        2.173135    0.619885    1.325394
     11          1           0       -3.098855   -1.745658    0.294494
     12          1           0       -0.719293   -2.335195    0.026917
     13          1           0        0.252610    1.836755   -0.392202
     14          1           0        1.411966   -1.749782   -0.721567
     15          1           0        2.234297    1.198632   -1.181817
     16          1           0        1.706735    0.092537   -2.457600
     17          1           0       -3.802355    0.622536    0.193973
     18          1           0       -2.129046    2.406338   -0.155565
     19          1           0        1.313587   -1.203431    1.652728
     20          1           0        3.199800   -0.224774   -1.563609
     21          1           0        2.153668    0.733680    2.289530
 ---------------------------------------------------------------------
 Rotational constants (GHZ):           2.5619046           0.9263094           0.8907821

 **********************************************************************

            Population analysis using the SCF Density.

 **********************************************************************

 Orbital symmetries:
       Occupied  (A) (A) (A) (A) (A) (A) (A) (A) (A) (A) (A) (A)
                 (A) (A) (A) (A) (A) (A) (A) (A) (A) (A) (A) (A)
                 (A) (A) (A) (A) (A) (A) (A) (A) (A) (A) (A) (A)
       Virtual   (A) (A) (A) (A) (A) (A) (A) (A) (A) (A) (A) (A)
                 (A) (A) (A) (A) (A) (A) (A) (A) (A) (A) (A) (A)
                 (A) (A) (A) (A) (A) (A) (A) (A) (A) (A) (A) (A)
                 (A) (A) (A) (A) (A) (A) (A) (A) (A) (A) (A) (A)
                 (A) (A) (A) (A) (A) (A) (A) (A) (A) (A) (A) (A)
                 (A) (A) (A) (A) (A) (A) (A) (A) (A) (A) (A) (A)
                 (A) (A) (A) (A) (A) (A) (A) (A) (A) (A) (A) (A)
                 (A) (A) (A) (A) (A) (A) (A) (A) (A) (A) (A) (A)
                 (A) (A) (A) (A) (A) (A) (A) (A) (A) (A) (A) (A)
                 (A) (A) (A) (A) (A) (A) (A) (A) (A) (A) (A) (A)
                 (A) (A) (A) (A) (A) (A) (A) (A) (A) (A) (A) (A)
                 (A) (A) (A) (A) (A) (A) (A) (A) (A) (A) (A) (A)
                 (A) (A) (A) (A) (A) (A) (A) (A) (A) (A) (A) (A)
                 (A) (A) (A) (A) (A) (A) (A) (A) (A) (A) (A) (A)
                 (A) (A) (A) (A) (A) (A) (A) (A) (A) (A) (A) (A)
                 (A) (A) (A) (A) (A) (A) (A) (A) (A) (A) (A) (A)
                 (A) (A) (A) (A) (A) (A) (A) (A) (A) (A) (A) (A)
                 (A) (A) (A) (A) (A) (A) (A) (A) (A) (A) (A) (A)
                 (A) (A) (A) (A) (A) (A) (A) (A) (A) (A) (A) (A)
                 (A) (A) (A) (A) (A) (A) (A) (A) (A) (A) (A) (A)
                 (A) (A) (A) (A) (A) (A) (A) (A) (A) (A) (A) (A)
                 (A) (A) (A) (A) (A) (A) (A) (A) (A) (A) (A) (A)
                 (A) (A) (A) (A) (A) (A) (A) (A) (A) (A) (A) (A)
                 (A) (A) (A) (A) (A) (A) (A) (A) (A) (A) (A) (A)
                 (A) (A) (A) (A) (A) (A) (A) (A) (A) (A) (A) (A)
                 (A) (A) (A) (A) (A) (A) (A) (A) (A) (A) (A) (A)
                 (A) (A) (A) (A) (A) (A) (A) (A) (A) (A) (A) (A)
                 (A) (A) (A) (A) (A) (A) (A) (A) (A) (A) (A) (A)
                 (A) (A) (A) (A)
 The electronic state is 1-A.
 Alpha  occ. eigenvalues --  -19.90544 -10.87094 -10.74800 -10.73573 -10.70778
 Alpha  occ. eigenvalues --  -10.70690 -10.69651 -10.69256 -10.69240 -10.68681
 Alpha  occ. eigenvalues --   -1.45017  -1.15199  -1.09590  -1.00524  -0.99042
 Alpha  occ. eigenvalues --   -0.97249  -0.90574  -0.85731  -0.84489  -0.82332
 Alpha  occ. eigenvalues --   -0.75963  -0.74671  -0.72094  -0.69310  -0.67758
 Alpha  occ. eigenvalues --   -0.65950  -0.65375  -0.64422  -0.61626  -0.60301
 Alpha  occ. eigenvalues --   -0.59243  -0.58873  -0.55625  -0.54947  -0.46748
 Alpha  occ. eigenvalues --   -0.46662
 Alpha virt. eigenvalues --   -0.22565  -0.13474  -0.12079  -0.10901  -0.06975
 Alpha virt. eigenvalues --   -0.05411  -0.04047  -0.02478  -0.00874  -0.00054
 Alpha virt. eigenvalues --    0.00233   0.01393   0.02200   0.02365   0.03626
 Alpha virt. eigenvalues --    0.04539   0.05302   0.05811   0.06186   0.08264
 Alpha virt. eigenvalues --    0.08870   0.09229   0.11146   0.11971   0.12800
 Alpha virt. eigenvalues --    0.13423   0.14370   0.14477   0.15327   0.16453
 Alpha virt. eigenvalues --    0.17030   0.18296   0.18910   0.20708   0.21735
 Alpha virt. eigenvalues --    0.22818   0.23217   0.24590   0.25022   0.26023
 Alpha virt. eigenvalues --    0.26216   0.27194   0.27832   0.29096   0.30324
 Alpha virt. eigenvalues --    0.30688   0.31208   0.31975   0.33147   0.33993
 Alpha virt. eigenvalues --    0.34488   0.34981   0.35864   0.36202   0.37671
 Alpha virt. eigenvalues --    0.38628   0.38793   0.39716   0.40676   0.40899
 Alpha virt. eigenvalues --    0.42345   0.43024   0.45133   0.45999   0.48611
 Alpha virt. eigenvalues --    0.49652   0.50997   0.52866   0.55706   0.57005
 Alpha virt. eigenvalues --    0.58691   0.59424   0.60088   0.62049   0.62324
 Alpha virt. eigenvalues --    0.64860   0.66039   0.66642   0.67750   0.70781
 Alpha virt. eigenvalues --    0.72884   0.73952   0.76263   0.77142   0.77736
 Alpha virt. eigenvalues --    0.78263   0.78630   0.81097   0.82845   0.85235
 Alpha virt. eigenvalues --    0.87026   0.87568   0.89790   0.91048   0.91834
 Alpha virt. eigenvalues --    0.94010   0.95513   0.96346   0.97674   0.99793
 Alpha virt. eigenvalues --    1.00358   1.01882   1.04629   1.08217   1.08642
 Alpha virt. eigenvalues --    1.09834   1.12027   1.12808   1.13151   1.15079
 Alpha virt. eigenvalues --    1.16919   1.17541   1.18133   1.19737   1.20405
 Alpha virt. eigenvalues --    1.26551   1.28435   1.30254   1.33836   1.34496
 Alpha virt. eigenvalues --    1.35123   1.35821   1.36766   1.39278   1.40571
 Alpha virt. eigenvalues --    1.41822   1.43080   1.45421   1.46240   1.47198
 Alpha virt. eigenvalues --    1.47849   1.49184   1.49924   1.50789   1.52139
 Alpha virt. eigenvalues --    1.54656   1.55689   1.56278   1.59132   1.60249
 Alpha virt. eigenvalues --    1.60629   1.61819   1.62731   1.63798   1.67686
 Alpha virt. eigenvalues --    1.70444   1.72377   1.74914   1.75333   1.78117
 Alpha virt. eigenvalues --    1.78497   1.79388   1.84523   1.86378   1.87827
 Alpha virt. eigenvalues --    1.88352   1.90646   1.93502   1.96571   1.97667
 Alpha virt. eigenvalues --    1.98629   2.01114   2.03145   2.03972   2.05635
 Alpha virt. eigenvalues --    2.07230   2.07997   2.10797   2.11096   2.13017
 Alpha virt. eigenvalues --    2.14794   2.18227   2.19804   2.20514   2.22501
 Alpha virt. eigenvalues --    2.24911   2.25245   2.28645   2.30703   2.32673
 Alpha virt. eigenvalues --    2.37105   2.37799   2.39134   2.40718   2.41199
 Alpha virt. eigenvalues --    2.43550   2.45300   2.45763   2.47397   2.49636
 Alpha virt. eigenvalues --    2.49909   2.50571   2.52219   2.53693   2.54531
 Alpha virt. eigenvalues --    2.55007   2.55163   2.55924   2.57384   2.58895
 Alpha virt. eigenvalues --    2.59398   2.62244   2.62725   2.64028   2.65440
 Alpha virt. eigenvalues --    2.66774   2.68802   2.69635   2.70631   2.72145
 Alpha virt. eigenvalues --    2.73894   2.74685   2.76525   2.79186   2.80868
 Alpha virt. eigenvalues --    2.81913   2.83377   2.84661   2.86658   2.88055
 Alpha virt. eigenvalues --    2.89681   2.91267   2.94002   2.94731   2.95591
 Alpha virt. eigenvalues --    2.97465   2.98455   2.99431   3.00224   3.00553
 Alpha virt. eigenvalues --    3.01265   3.03412   3.04028   3.05393   3.07000
 Alpha virt. eigenvalues --    3.09444   3.11491   3.12407   3.13205   3.15692
 Alpha virt. eigenvalues --    3.15717   3.18713   3.18958   3.20776   3.23213
 Alpha virt. eigenvalues --    3.23883   3.24683   3.25858   3.28136   3.28628
 Alpha virt. eigenvalues --    3.29453   3.31057   3.32412   3.33652   3.34753
 Alpha virt. eigenvalues --    3.36706   3.39299   3.40756   3.41003   3.43610
 Alpha virt. eigenvalues --    3.46109   3.47061   3.47806   3.51107   3.53092
 Alpha virt. eigenvalues --    3.55726   3.56411   3.60033   3.61985   3.65191
 Alpha virt. eigenvalues --    3.66377   3.70037   3.73188   3.77282   3.80349
 Alpha virt. eigenvalues --    3.82600   3.84545   3.85962   3.87660   3.88531
 Alpha virt. eigenvalues --    3.90829   3.93778   3.97499   3.99693   4.02481
 Alpha virt. eigenvalues --    4.03005   4.03934   4.05321   4.07359   4.08680
 Alpha virt. eigenvalues --    4.12834   4.14059   4.15450   4.18071   4.23242
 Alpha virt. eigenvalues --    4.25317   4.28724   4.30851   4.36867   4.40023
 Alpha virt. eigenvalues --    4.44287   4.45525   4.46861   4.51073   4.55651
 Alpha virt. eigenvalues --    4.56062   4.62777   4.68727   4.69941   4.72595
 Alpha virt. eigenvalues --    4.77008   4.90730   5.01056   5.03055   5.04751
 Alpha virt. eigenvalues --    5.12800   5.17638   5.19122   5.27360   5.31245
 Alpha virt. eigenvalues --    5.43490   5.67334   5.70283   5.96552   6.11290
 Alpha virt. eigenvalues --    6.20337   6.43852   6.55129   6.75289   6.98928
 Alpha virt. eigenvalues --   22.05252  22.36020  22.52233  22.57587  22.67715
 Alpha virt. eigenvalues --   22.70904  22.71158  22.82512  23.17159  43.80687
          Condensed to atoms (all electrons):
               1          2          3          4          5          6
     1  C    4.909837   0.472065  -0.020229  -0.102251   0.015740   0.466022
     2  C    0.472065   5.054555   0.419513   0.024883  -0.094599   0.001090
     3  C   -0.020229   0.419513   5.437533   0.296321  -0.010567  -0.075047
     4  C   -0.102251   0.024883   0.296321   5.204223   0.393565   0.024423
     5  C    0.015740  -0.094599  -0.010567   0.393565   4.967705   0.453840
     6  C    0.466022   0.001090  -0.075047   0.024423   0.453840   4.879394
     7  C    0.012457  -0.075320  -0.045750   0.007361   0.024657  -0.005841
     8  C   -0.000870   0.007211  -0.014497  -0.020471   0.001124   0.000116
     9  C   -0.003384   0.025981   0.086647  -0.016575  -0.008017  -0.000317
    10  O   -0.000883   0.005099  -0.029961   0.002921  -0.004793   0.000979
    11  H    0.409990  -0.030881   0.006705  -0.000441   0.003496  -0.024453
    12  H   -0.008396   0.400650  -0.044856   0.006515  -0.002504   0.004322
    13  H   -0.000883   0.002062  -0.055100   0.400947   0.003878   0.003021
    14  H    0.001081  -0.006021  -0.067129   0.004749   0.000925  -0.000353
    15  H    0.000163  -0.001747  -0.046325   0.012393   0.003458  -0.000179
    16  H   -0.000108   0.002602   0.013180  -0.008745  -0.000613   0.000014
    17  H   -0.029612   0.004623   0.000033   0.006049  -0.029612   0.409121
    18  H    0.003731  -0.000465   0.007043  -0.032134   0.411383  -0.025400
    19  H    0.000460  -0.006118  -0.013064   0.004279  -0.000096   0.000100
    20  H   -0.000008  -0.000610   0.015047   0.000681  -0.000118   0.000014
    21  H   -0.000071   0.000219  -0.002025   0.000284  -0.000172   0.000067
               7          8          9         10         11         12
     1  C    0.012457  -0.000870  -0.003384  -0.000883   0.409990  -0.008396
     2  C   -0.075320   0.007211   0.025981   0.005099  -0.030881   0.400650
     3  C   -0.045750  -0.014497   0.086647  -0.029961   0.006705  -0.044856
     4  C    0.007361  -0.020471  -0.016575   0.002921  -0.000441   0.006515
     5  C    0.024657   0.001124  -0.008017  -0.004793   0.003496  -0.002504
     6  C   -0.005841   0.000116  -0.000317   0.000979  -0.024453   0.004322
     7  C    5.631832   0.219092   0.139728  -0.057671  -0.000141   0.001996
     8  C    0.219092   5.024891  -0.023212  -0.002870  -0.000002   0.001204
     9  C    0.139728  -0.023212   4.886303   0.379100  -0.000034  -0.002494
    10  O   -0.057671  -0.002870   0.379100   7.700781  -0.000001   0.000142
    11  H   -0.000141  -0.000002  -0.000034  -0.000001   0.455999  -0.002481
    12  H    0.001996   0.001204  -0.002494   0.000142  -0.002481   0.455492
    13  H    0.013696  -0.010867  -0.002464   0.004488   0.000034  -0.000068
    14  H    0.472545  -0.014841  -0.060723   0.002062  -0.000024  -0.001555
    15  H    0.049239   0.373383  -0.025934   0.002735  -0.000000  -0.000086
    16  H   -0.069847   0.440419   0.010668  -0.000103   0.000001   0.000043
    17  H   -0.000057   0.000002   0.000029   0.000002  -0.002649  -0.000126
    18  H    0.000024   0.000039  -0.000002  -0.000035  -0.000142   0.000031
    19  H   -0.042152   0.000717   0.432314  -0.033416  -0.000011   0.000104
    20  H   -0.052739   0.423379  -0.001560   0.000146  -0.000000   0.000011
    21  H    0.008865  -0.000178  -0.022736   0.302500   0.000000   0.000016
              13         14         15         16         17         18
     1  C   -0.000883   0.001081   0.000163  -0.000108  -0.029612   0.003731
     2  C    0.002062  -0.006021  -0.001747   0.002602   0.004623  -0.000465
     3  C   -0.055100  -0.067129  -0.046325   0.013180   0.000033   0.007043
     4  C    0.400947   0.004749   0.012393  -0.008745   0.006049  -0.032134
     5  C    0.003878   0.000925   0.003458  -0.000613  -0.029612   0.411383
     6  C    0.003021  -0.000353  -0.000179   0.000014   0.409121  -0.025400
     7  C    0.013696   0.472545   0.049239  -0.069847  -0.000057   0.000024
     8  C   -0.010867  -0.014841   0.373383   0.440419   0.000002   0.000039
     9  C   -0.002464  -0.060723  -0.025934   0.010668   0.000029  -0.000002
    10  O    0.004488   0.002062   0.002735  -0.000103   0.000002  -0.000035
    11  H    0.000034  -0.000024  -0.000000   0.000001  -0.002649  -0.000142
    12  H   -0.000068  -0.001555  -0.000086   0.000043  -0.000126   0.000031
    13  H    0.437821  -0.000021  -0.001626   0.000225  -0.000131  -0.002519
    14  H   -0.000021   0.455293   0.006388  -0.006786  -0.000004   0.000006
    15  H   -0.001626   0.006388   0.516705  -0.023125  -0.000002   0.000014
    16  H    0.000225  -0.006786  -0.023125   0.459204  -0.000000   0.000007
    17  H   -0.000131  -0.000004  -0.000002  -0.000000   0.457712  -0.002709
    18  H   -0.002519   0.000006   0.000014   0.000007  -0.002709   0.456680
    19  H    0.000012   0.000453  -0.000182  -0.000048   0.000001   0.000002
    20  H    0.000296  -0.005515  -0.022422  -0.014387   0.000000  -0.000001
    21  H    0.000128  -0.000347  -0.000193   0.000022  -0.000000  -0.000002
              19         20         21
     1  C    0.000460  -0.000008  -0.000071
     2  C   -0.006118  -0.000610   0.000219
     3  C   -0.013064   0.015047  -0.002025
     4  C    0.004279   0.000681   0.000284
     5  C   -0.000096  -0.000118  -0.000172
     6  C    0.000100   0.000014   0.000067
     7  C   -0.042152  -0.052739   0.008865
     8  C    0.000717   0.423379  -0.000178
     9  C    0.432314  -0.001560  -0.022736
    10  O   -0.033416   0.000146   0.302500
    11  H   -0.000011  -0.000000   0.000000
    12  H    0.000104   0.000011   0.000016
    13  H    0.000012   0.000296   0.000128
    14  H    0.000453  -0.005515  -0.000347
    15  H   -0.000182  -0.022422  -0.000193
    16  H   -0.000048  -0.014387   0.000022
    17  H    0.000001   0.000000  -0.000000
    18  H    0.000002  -0.000001  -0.000002
    19  H    0.443533   0.000159  -0.010192
    20  H    0.000159   0.467922  -0.000060
    21  H   -0.010192  -0.000060   0.331262
 Mulliken charges:
               1
     1  C   -0.124853
     2  C   -0.204792
     3  C    0.142529
     4  C   -0.208977
     5  C   -0.128679
     6  C   -0.110933
     7  C   -0.231976
     8  C   -0.403770
     9  C    0.206681
    10  O   -0.271221
    11  H    0.185035
    12  H    0.192041
    13  H    0.207072
    14  H    0.219818
    15  H    0.157343
    16  H    0.197377
    17  H    0.187330
    18  H    0.184450
    19  H    0.223146
    20  H    0.189765
    21  H    0.392613
 Sum of Mulliken charges =   1.00000
 Mulliken charges with hydrogens summed into heavy atoms:
               1
     1  C    0.060182
     2  C   -0.012751
     3  C    0.142529
     4  C   -0.001906
     5  C    0.055772
     6  C    0.076397
     7  C   -0.012158
     8  C    0.140716
     9  C    0.429827
    10  O    0.121392
 Electronic spatial extent (au):  <R**2>=           1440.1404
 Charge=              1.0000 electrons
 Dipole moment (field-independent basis, Debye):
    X=              2.8347    Y=             -0.9960    Z=              3.1602  Tot=              4.3606
 Quadrupole moment (field-independent basis, Debye-Ang):
   XX=            -33.9839   YY=            -47.0200   ZZ=            -46.7026
   XY=             -1.8687   XZ=              5.1615   YZ=              0.0223
 Traceless Quadrupole moment (field-independent basis, Debye-Ang):
   XX=              8.5849   YY=             -4.4512   ZZ=             -4.1337
   XY=             -1.8687   XZ=              5.1615   YZ=              0.0223
 Octapole moment (field-independent basis, Debye-Ang**2):
  XXX=             -5.4634  YYY=              0.5440  ZZZ=             30.1762  XYY=             -1.5219
  XXY=              0.1286  XXZ=             16.0596  XZZ=             38.0219  YZZ=              4.0758
  YYZ=              4.3455  XYZ=              3.9882
 Hexadecapole moment (field-independent basis, Debye-Ang**3):
 XXXX=          -1027.0591 YYYY=           -311.8639 ZZZZ=           -209.0294 XXXY=             -2.8761
 XXXZ=             17.2220 YYYX=             -0.0636 YYYZ=              0.5410 ZZZX=             63.9088
 ZZZY=             18.6093 XXYY=           -228.0113 XXZZ=           -208.2780 YYZZ=           -103.6334
 XXYZ=              6.2077 YYXZ=              8.7248 ZZXY=             12.2306
 N-N= 5.096065539251D+02 E-N=-1.993248242010D+03  KE= 4.224398133279D+02
 Unable to Open any file for archive entry.
 1\1\GINC-BIO3-HORSEA-12U\FOpt\RM062X\def2TZVP\C9H11O1(1+)\VIP13T32\07-
 Apr-2023\0\\# opt m062x/def2tzvp\\Title Card Required\\1,1\C,16.128103
 7237,23.1189728022,70.9238225245\C,17.2795941234,23.7684015069,71.3293
 320179\C,17.6832814574,23.6949091193,72.666340451\C,16.9637960661,22.9
 190843431,73.5779686042\C,15.8092794834,22.277914111,73.165518718\C,15
 .3925907042,22.3778763215,71.842482025\C,18.930696669,24.515745947,73.
 1306048732\C,18.8934570041,25.1028214115,74.5264287283\C,19.7045793147
 ,23.3194107988,72.9139688391\O,20.043109629,22.5761014179,73.904454492
 5\H,15.7999426284,23.193985584,69.8961910974\H,17.8475462301,24.361289
 4391,70.6215763637\H,17.2928137213,22.8290968849,74.6053034633\H,19.13
 27180948,25.2506445406,72.3543725769\H,18.7794021068,24.3382731003,75.
 2910288113\H,18.0622958894,25.8007159883,74.6008041598\H,14.4912361508
 ,21.8709172899,71.5241153218\H,15.2348836046,21.6966496227,73.87373373
 12\H,19.9856554466,23.0100500379,71.9097518119\H,19.8198546511,25.6412
 915088,74.7221290992\H,20.4372907911,21.7272056244,73.6458353298\\Vers
 ion=ES64L-G16RevC.01\State=1-A\HF=-424.4887835\RMSD=4.747e-09\RMSF=1.2
 68e-05\Dipole=1.6209803,-0.508517,-0.238958\Quadrupole=7.2378641,-3.73
 49068,-3.5029573,0.6854425,2.6811763,-0.5124886\PG=C01 [X(C9H11O1)]\\@
 The archive entry for this job was punched.


 THERE'S A SUCKER BORN EVERY MINUTE

              -- PHINEAS TAYLOR (P.T.) BARNUM
 Job cpu time:       0 days  5 hours 51 minutes 43.9 seconds.
 Elapsed time:       0 days  0 hours 22 minutes 40.3 seconds.
 File lengths (MBytes):  RWF=     93 Int=      0 D2E=      0 Chk=     11 Scr=      1
 Normal termination of Gaussian 16 at Fri Apr  7 22:57:19 2023.
