 Entering Gaussian System, Link 0=g16
 Input=h_rpp_water.gjf
 Output=h_rpp_water.log
 Initial command:
 /home/data/vip13t32/docs/gaussian/gaussian/g16/l1.exe "/home/data/vip13t32/Rtmp/Gau-2406755.inp" -scrdir="/home/data/vip13t32/Rtmp/"
 Entering Link 1 = /home/data/vip13t32/docs/gaussian/gaussian/g16/l1.exe PID=   2406757.
  
 Copyright (c) 1988-2019, Gaussian, Inc.  All Rights Reserved.
  
 This is part of the Gaussian(R) 16 program.  It is based on
 the Gaussian(R) 09 system (copyright 2009, Gaussian, Inc.),
 the Gaussian(R) 03 system (copyright 2003, Gaussian, Inc.),
 the Gaussian(R) 98 system (copyright 1998, Gaussian, Inc.),
 the Gaussian(R) 94 system (copyright 1995, Gaussian, Inc.),
 the Gaussian 92(TM) system (copyright 1992, Gaussian, Inc.),
 the Gaussian 90(TM) system (copyright 1990, Gaussian, Inc.),
 the Gaussian 88(TM) system (copyright 1988, Gaussian, Inc.),
 the Gaussian 86(TM) system (copyright 1986, Carnegie Mellon
 University), and the Gaussian 82(TM) system (copyright 1983,
 Carnegie Mellon University). Gaussian is a federally registered
 trademark of Gaussian, Inc.
  
 This software contains proprietary and confidential information,
 including trade secrets, belonging to Gaussian, Inc.
  
 This software is provided under written license and may be
 used, copied, transmitted, or stored only in accord with that
 written license.
  
 The following legend is applicable only to US Government
 contracts under FAR:
  
                    RESTRICTED RIGHTS LEGEND
  
 Use, reproduction and disclosure by the US Government is
 subject to restrictions as set forth in subparagraphs (a)
 and (c) of the Commercial Computer Software - Restricted
 Rights clause in FAR 52.227-19.
  
 Gaussian, Inc.
 340 Quinnipiac St., Bldg. 40, Wallingford CT 06492
  
  
 ---------------------------------------------------------------
 Warning -- This program may not be used in any manner that
 competes with the business of Gaussian, Inc. or will provide
 assistance to any competitor of Gaussian, Inc.  The licensee
 of this program is prohibited from giving any competitor of
 Gaussian, Inc. access to this program.  By using this program,
 the user acknowledges that Gaussian, Inc. is engaged in the
 business of creating and licensing software in the field of
 computational chemistry and represents and warrants to the
 licensee that it is not a competitor of Gaussian, Inc. and that
 it will not use this program in any manner prohibited above.
 ---------------------------------------------------------------
  

 Cite this work as:
 Gaussian 16, Revision C.01,
 M. J. Frisch, G. W. Trucks, H. B. Schlegel, G. E. Scuseria, 
 M. A. Robb, J. R. Cheeseman, G. Scalmani, V. Barone, 
 G. A. Petersson, H. Nakatsuji, X. Li, M. Caricato, A. V. Marenich, 
 J. Bloino, B. G. Janesko, R. Gomperts, B. Mennucci, H. P. Hratchian, 
 J. V. Ortiz, A. F. Izmaylov, J. L. Sonnenberg, D. Williams-Young, 
 F. Ding, F. Lipparini, F. Egidi, J. Goings, B. Peng, A. Petrone, 
 T. Henderson, D. Ranasinghe, V. G. Zakrzewski, J. Gao, N. Rega, 
 G. Zheng, W. Liang, M. Hada, M. Ehara, K. Toyota, R. Fukuda, 
 J. Hasegawa, M. Ishida, T. Nakajima, Y. Honda, O. Kitao, H. Nakai, 
 T. Vreven, K. Throssell, J. A. Montgomery, Jr., J. E. Peralta, 
 F. Ogliaro, M. J. Bearpark, J. J. Heyd, E. N. Brothers, K. N. Kudin, 
 V. N. Staroverov, T. A. Keith, R. Kobayashi, J. Normand, 
 K. Raghavachari, A. P. Rendell, J. C. Burant, S. S. Iyengar, 
 J. Tomasi, M. Cossi, J. M. Millam, M. Klene, C. Adamo, R. Cammi, 
 J. W. Ochterski, R. L. Martin, K. Morokuma, O. Farkas, 
 J. B. Foresman, and D. J. Fox, Gaussian, Inc., Wallingford CT, 2019.
 
 ******************************************
 Gaussian 16:  ES64L-G16RevC.01  3-Jul-2019
                 7-Apr-2023 
 ******************************************
 %mem=50GB
 %chk=/home/data/vip13t32/docs/g16out/mol_for_md/H_RPP/water.chk
 %nprocshared=20
 Will use up to   20 processors via shared memory.
 ---------------------------------------------
 # opt m062x/def2tzvp scrf=(smd,solvent=water)
 ---------------------------------------------
 1/18=20,19=15,26=3,38=1/1,3;
 2/9=110,12=2,17=6,18=5,40=1/2;
 3/5=44,7=101,11=2,25=1,30=1,70=32201,71=1,72=1,74=-55/1,2,3;
 4//1;
 5/5=2,38=5,53=1/2;
 6/7=2,8=2,9=2,10=2,28=1/1;
 7//1,2,3,16;
 1/18=20,19=15,26=3/3(2);
 2/9=110/2;
 99//99;
 2/9=110/2;
 3/5=44,7=101,11=2,25=1,30=1,70=32205,71=1,72=1,74=-55/1,2,3;
 4/5=5,16=3,69=1/1;
 5/5=2,38=5,53=1/2;
 7//1,2,3,16;
 1/18=20,19=15,26=3/3(-5);
 2/9=110/2;
 6/7=2,8=2,9=2,10=2,19=2,28=1/1;
 99/9=1/99;
 -------------------
 Title Card Required
 -------------------
 Symbolic Z-matrix:
 Charge =  1 Multiplicity = 1
 C                    0     16.1995   23.08085   70.93274 
 C                    0     17.38585   23.66847   71.31455 
 C                    0     17.8164   23.59857   72.65775 
 C                    0     17.01898   22.90566   73.5915 
 C                    0     15.83158   22.3288   73.19625 
 C                    0     15.41897   22.41208   71.87058 
 C                    0     18.93549   24.59367   73.14273 
 C                    0     18.86263   25.10986   74.55446 
 C                    0     19.57318   23.33066   72.85374 
 O                    0     19.91058   22.50905   73.82218 
 H                    0     15.87515   23.14463   69.90611 
 H                    0     17.98376   24.20038   70.58905 
 H                    0     17.34662   22.82525   74.61629 
 H                    0     19.07537   25.37372   72.40109 
 H                    0     18.9538   24.31065   75.28322 
 H                    0     17.93433   25.65086   74.71833 
 H                    0     14.49111   21.95243   71.56686 
 H                    0     15.22314   21.80909   73.91949 
 H                    0     19.94847   23.1379   71.85238 
 H                    0     19.68797   25.80223   74.7081 
 H                    0     20.23925   21.64655   73.52836 
 

 GradGradGradGradGradGradGradGradGradGradGradGradGradGradGradGradGradGrad
 Berny optimization.
 Initialization pass.
                           ----------------------------
                           !    Initial Parameters    !
                           ! (Angstroms and Degrees)  !
 --------------------------                            --------------------------
 ! Name  Definition              Value          Derivative Info.                !
 --------------------------------------------------------------------------------
 ! R1    R(1,2)                  1.3779         estimate D2E/DX2                !
 ! R2    R(1,6)                  1.3914         estimate D2E/DX2                !
 ! R3    R(1,11)                 1.0785         estimate D2E/DX2                !
 ! R4    R(2,3)                  1.4123         estimate D2E/DX2                !
 ! R5    R(2,12)                 1.0802         estimate D2E/DX2                !
 ! R6    R(3,4)                  1.4099         estimate D2E/DX2                !
 ! R7    R(3,7)                  1.5741         estimate D2E/DX2                !
 ! R8    R(3,9)                  1.7879         estimate D2E/DX2                !
 ! R9    R(4,5)                  1.378          estimate D2E/DX2                !
 ! R10   R(4,13)                 1.0789         estimate D2E/DX2                !
 ! R11   R(5,6)                  1.3909         estimate D2E/DX2                !
 ! R12   R(5,18)                 1.0786         estimate D2E/DX2                !
 ! R13   R(6,17)                 1.0791         estimate D2E/DX2                !
 ! R14   R(7,8)                  1.5049         estimate D2E/DX2                !
 ! R15   R(7,9)                  1.4441         estimate D2E/DX2                !
 ! R16   R(7,14)                 1.0854         estimate D2E/DX2                !
 ! R17   R(8,15)                 1.0854         estimate D2E/DX2                !
 ! R18   R(8,16)                 1.0869         estimate D2E/DX2                !
 ! R19   R(8,20)                 1.0882         estimate D2E/DX2                !
 ! R20   R(9,10)                 1.3141         estimate D2E/DX2                !
 ! R21   R(9,19)                 1.0866         estimate D2E/DX2                !
 ! R22   R(10,21)                0.9686         estimate D2E/DX2                !
 ! A1    A(2,1,6)              120.0798         estimate D2E/DX2                !
 ! A2    A(2,1,11)             119.8333         estimate D2E/DX2                !
 ! A3    A(6,1,11)             120.0862         estimate D2E/DX2                !
 ! A4    A(1,2,3)              120.3274         estimate D2E/DX2                !
 ! A5    A(1,2,12)             120.0326         estimate D2E/DX2                !
 ! A6    A(3,2,12)             119.6318         estimate D2E/DX2                !
 ! A7    A(2,3,4)              118.8018         estimate D2E/DX2                !
 ! A8    A(2,3,7)              118.5869         estimate D2E/DX2                !
 ! A9    A(2,3,9)              114.2832         estimate D2E/DX2                !
 ! A10   A(4,3,7)              120.5792         estimate D2E/DX2                !
 ! A11   A(4,3,9)              114.1736         estimate D2E/DX2                !
 ! A12   A(3,4,5)              120.207          estimate D2E/DX2                !
 ! A13   A(3,4,13)             119.5992         estimate D2E/DX2                !
 ! A14   A(5,4,13)             120.1929         estimate D2E/DX2                !
 ! A15   A(4,5,6)              120.26           estimate D2E/DX2                !
 ! A16   A(4,5,18)             119.6997         estimate D2E/DX2                !
 ! A17   A(6,5,18)             120.0401         estimate D2E/DX2                !
 ! A18   A(1,6,5)              120.3168         estimate D2E/DX2                !
 ! A19   A(1,6,17)             119.8259         estimate D2E/DX2                !
 ! A20   A(5,6,17)             119.8569         estimate D2E/DX2                !
 ! A21   A(3,7,8)              118.1281         estimate D2E/DX2                !
 ! A22   A(3,7,14)             109.5988         estimate D2E/DX2                !
 ! A23   A(8,7,9)              120.6044         estimate D2E/DX2                !
 ! A24   A(8,7,14)             113.6229         estimate D2E/DX2                !
 ! A25   A(9,7,14)             115.7797         estimate D2E/DX2                !
 ! A26   A(7,8,15)             111.9139         estimate D2E/DX2                !
 ! A27   A(7,8,16)             110.7029         estimate D2E/DX2                !
 ! A28   A(7,8,20)             108.2987         estimate D2E/DX2                !
 ! A29   A(15,8,16)            109.6956         estimate D2E/DX2                !
 ! A30   A(15,8,20)            108.0579         estimate D2E/DX2                !
 ! A31   A(16,8,20)            108.0473         estimate D2E/DX2                !
 ! A32   A(3,9,10)             115.2636         estimate D2E/DX2                !
 ! A33   A(3,9,19)             105.3633         estimate D2E/DX2                !
 ! A34   A(7,9,10)             120.8468         estimate D2E/DX2                !
 ! A35   A(7,9,19)             119.478          estimate D2E/DX2                !
 ! A36   A(10,9,19)            118.6571         estimate D2E/DX2                !
 ! A37   A(9,10,21)            114.854          estimate D2E/DX2                !
 ! D1    D(6,1,2,3)             -0.1079         estimate D2E/DX2                !
 ! D2    D(6,1,2,12)          -179.0662         estimate D2E/DX2                !
 ! D3    D(11,1,2,3)           179.6007         estimate D2E/DX2                !
 ! D4    D(11,1,2,12)            0.6424         estimate D2E/DX2                !
 ! D5    D(2,1,6,5)             -0.1861         estimate D2E/DX2                !
 ! D6    D(2,1,6,17)          -179.9341         estimate D2E/DX2                !
 ! D7    D(11,1,6,5)          -179.894          estimate D2E/DX2                !
 ! D8    D(11,1,6,17)            0.358          estimate D2E/DX2                !
 ! D9    D(1,2,3,4)              0.715          estimate D2E/DX2                !
 ! D10   D(1,2,3,7)           -163.1774         estimate D2E/DX2                !
 ! D11   D(1,2,3,9)            140.2427         estimate D2E/DX2                !
 ! D12   D(12,2,3,4)           179.6774         estimate D2E/DX2                !
 ! D13   D(12,2,3,7)            15.7851         estimate D2E/DX2                !
 ! D14   D(12,2,3,9)           -40.7948         estimate D2E/DX2                !
 ! D15   D(2,3,4,5)             -1.0447         estimate D2E/DX2                !
 ! D16   D(2,3,4,13)           178.6291         estimate D2E/DX2                !
 ! D17   D(7,3,4,5)            162.5174         estimate D2E/DX2                !
 ! D18   D(7,3,4,13)           -17.8087         estimate D2E/DX2                !
 ! D19   D(9,3,4,5)           -140.6145         estimate D2E/DX2                !
 ! D20   D(9,3,4,13)            39.0593         estimate D2E/DX2                !
 ! D21   D(2,3,7,8)            145.0725         estimate D2E/DX2                !
 ! D22   D(2,3,7,14)            12.7993         estimate D2E/DX2                !
 ! D23   D(4,3,7,8)            -18.5244         estimate D2E/DX2                !
 ! D24   D(4,3,7,14)          -150.7976         estimate D2E/DX2                !
 ! D25   D(2,3,9,10)          -140.3451         estimate D2E/DX2                !
 ! D26   D(2,3,9,19)            -7.5326         estimate D2E/DX2                !
 ! D27   D(4,3,9,10)             1.0861         estimate D2E/DX2                !
 ! D28   D(4,3,9,19)           133.8985         estimate D2E/DX2                !
 ! D29   D(3,4,5,6)              0.7683         estimate D2E/DX2                !
 ! D30   D(3,4,5,18)          -179.3914         estimate D2E/DX2                !
 ! D31   D(13,4,5,6)          -178.9035         estimate D2E/DX2                !
 ! D32   D(13,4,5,18)            0.9368         estimate D2E/DX2                !
 ! D33   D(4,5,6,1)             -0.1466         estimate D2E/DX2                !
 ! D34   D(4,5,6,17)           179.6014         estimate D2E/DX2                !
 ! D35   D(18,5,6,1)          -179.9863         estimate D2E/DX2                !
 ! D36   D(18,5,6,17)           -0.2384         estimate D2E/DX2                !
 ! D37   D(3,7,8,15)            62.732          estimate D2E/DX2                !
 ! D38   D(3,7,8,16)           -59.9775         estimate D2E/DX2                !
 ! D39   D(3,7,8,20)          -178.2591         estimate D2E/DX2                !
 ! D40   D(9,7,8,15)           -22.6884         estimate D2E/DX2                !
 ! D41   D(9,7,8,16)          -145.398          estimate D2E/DX2                !
 ! D42   D(9,7,8,20)            96.3205         estimate D2E/DX2                !
 ! D43   D(14,7,8,15)         -166.8056         estimate D2E/DX2                !
 ! D44   D(14,7,8,16)           70.4849         estimate D2E/DX2                !
 ! D45   D(14,7,8,20)          -47.7967         estimate D2E/DX2                !
 ! D46   D(8,7,9,10)            10.9474         estimate D2E/DX2                !
 ! D47   D(8,7,9,19)          -157.3572         estimate D2E/DX2                !
 ! D48   D(14,7,9,10)          154.3372         estimate D2E/DX2                !
 ! D49   D(14,7,9,19)          -13.9674         estimate D2E/DX2                !
 ! D50   D(3,9,10,21)          108.0462         estimate D2E/DX2                !
 ! D51   D(7,9,10,21)          173.3653         estimate D2E/DX2                !
 ! D52   D(19,9,10,21)         -18.2361         estimate D2E/DX2                !
 --------------------------------------------------------------------------------
 Trust Radius=3.00D-01 FncErr=1.00D-07 GrdErr=1.00D-06 EigMax=2.50D+02 EigMin=1.00D-04
 Number of steps in this run=    121 maximum allowed number of steps=    126.
 GradGradGradGradGradGradGradGradGradGradGradGradGradGradGradGradGradGrad

                          Input orientation:                          
 ---------------------------------------------------------------------
 Center     Atomic      Atomic             Coordinates (Angstroms)
 Number     Number       Type             X           Y           Z
 ---------------------------------------------------------------------
      1          6           0       16.199504   23.080850   70.932744
      2          6           0       17.385845   23.668469   71.314547
      3          6           0       17.816401   23.598571   72.657755
      4          6           0       17.018979   22.905664   73.591498
      5          6           0       15.831579   22.328795   73.196253
      6          6           0       15.418970   22.412077   71.870584
      7          6           0       18.935485   24.593670   73.142733
      8          6           0       18.862630   25.109859   74.554458
      9          6           0       19.573178   23.330656   72.853739
     10          8           0       19.910582   22.509051   73.822176
     11          1           0       15.875147   23.144634   69.906109
     12          1           0       17.983764   24.200378   70.589046
     13          1           0       17.346618   22.825253   74.616291
     14          1           0       19.075370   25.373717   72.401093
     15          1           0       18.953800   24.310649   75.283221
     16          1           0       17.934334   25.650865   74.718326
     17          1           0       14.491108   21.952434   71.566859
     18          1           0       15.223144   21.809092   73.919493
     19          1           0       19.948474   23.137898   71.852375
     20          1           0       19.687972   25.802228   74.708103
     21          1           0       20.239245   21.646548   73.528359
 ---------------------------------------------------------------------
                    Distance matrix (angstroms):
                    1          2          3          4          5
     1  C    0.000000
     2  C    1.377852   0.000000
     3  C    2.420342   1.412257   0.000000
     4  C    2.787688   2.429191   1.409922   0.000000
     5  C    2.413385   2.784113   2.416988   1.378011   0.000000
     6  C    1.391415   2.399229   2.788384   2.401084   1.390892
     7  C    3.828612   2.568978   1.574095   2.593019   3.842753
     8  C    4.932133   3.841292   2.641225   3.030646   4.332010
     9  C    3.890283   2.695858   1.787862   2.692366   3.888521
    10  O    4.737919   3.742559   2.632210   2.927778   4.130682
    11  H    1.078542   2.130800   3.397952   3.866206   3.390064
    12  H    2.134258   1.080178   2.160957   3.409078   3.864226
    13  H    3.866486   3.407941   2.157448   1.078894   2.135022
    14  H    3.960290   2.634948   2.191351   3.425944   4.519514
    15  H    5.293884   4.315235   2.948526   2.929068   4.246344
    16  H    4.893388   3.976990   2.910631   3.105438   4.215973
    17  H    2.143371   3.374603   3.867479   3.376084   2.143230
    18  H    3.389885   3.862681   3.393995   2.129571   1.078592
    19  H    3.860538   2.671671   2.325207   3.414736   4.405619
    20  H    5.816239   4.622654   3.544405   4.093948   5.405755
    21  H    5.011382   4.138963   3.230870   3.458247   4.472502
                    6          7          8          9         10
     6  C    0.000000
     7  C    4.329387   0.000000
     8  C    5.132252   1.504901   0.000000
     9  C    4.366672   1.444082   2.561813   0.000000
    10  O    4.898235   2.399603   2.898042   1.314058   0.000000
    11  H    2.145669   4.684134   5.864666   4.732711   5.659000
    12  H    3.379131   2.753501   4.162217   2.900256   4.126299
    13  H    3.380155   2.796993   2.742544   2.884370   2.702687
    14  H    4.735189   1.085390   2.179876   2.151000   3.305053
    15  H    5.267418   2.159196   1.085424   2.691913   2.509151
    16  H    4.992639   2.145334   1.086864   3.397920   3.818329
    17  H    1.079096   5.404812   6.164843   5.420608   5.896353
    18  H    2.144754   4.705179   4.954201   4.730093   4.740410
    19  H    4.587326   2.193272   3.516950   1.086615   2.068091
    20  H    6.145650   2.115946   1.088195   3.092007   3.417519
    21  H    5.154543   3.245616   3.865550   1.932609   0.968638
                   11         12         13         14         15
    11  H    0.000000
    12  H    2.455048   0.000000
    13  H    4.945001   4.302978   0.000000
    14  H    4.629814   2.419058   3.793462   0.000000
    15  H    6.304842   4.794623   2.287844   3.074339   0.000000
    16  H    5.803351   4.376906   2.887890   2.597757   1.776118
    17  H    2.468804   4.267085   4.267878   5.780708   6.268026
    18  H    4.279723   4.942787   2.455046   5.463674   4.694181
    19  H    4.514420   2.566115   3.808757   2.462172   3.759710
    20  H    6.682782   4.736758   3.788502   2.425118   1.759141
    21  H    5.866030   4.499867   3.307602   4.064127   3.439381
                   16         17         18         19         20
    16  H    0.000000
    17  H    5.955329   0.000000
    18  H    4.769476   2.468058   0.000000
    19  H    4.311083   5.591931   5.326110   0.000000
    20  H    1.760187   7.189973   6.041666   3.914293   0.000000
    21  H    4.771078   6.081294   5.033953   2.262210   4.354925
                   21
    21  H    0.000000
 Stoichiometry    C9H11O(1+)
 Framework group  C1[X(C9H11O)]
 Deg. of freedom    57
 Full point group                 C1      NOp   1
 Largest Abelian subgroup         C1      NOp   1
 Largest concise Abelian subgroup C1      NOp   1
                         Standard orientation:                         
 ---------------------------------------------------------------------
 Center     Atomic      Atomic             Coordinates (Angstroms)
 Number     Number       Type             X           Y           Z
 ---------------------------------------------------------------------
      1          6           0       -2.309623   -0.976064   -0.050662
      2          6           0       -0.970273   -1.287413   -0.138295
      3          6           0        0.000895   -0.262150   -0.150111
      4          6           0       -0.425422    1.078436   -0.055431
      5          6           0       -1.768807    1.374733    0.024816
      6          6           0       -2.712819    0.353262    0.029082
      7          6           0        1.454302   -0.607103   -0.646487
      8          6           0        2.214364    0.447936   -1.404067
      9          6           0        1.471448   -0.631415    0.797288
     10          8           0        1.964824    0.375601    1.482305
     11          1           0       -3.044903   -1.765123   -0.048781
     12          1           0       -0.658928   -2.318873   -0.215364
     13          1           0        0.306769    1.870709   -0.040856
     14          1           0        1.451745   -1.576376   -1.134928
     15          1           0        2.396843    1.329605   -0.797843
     16          1           0        1.682396    0.729373   -2.309095
     17          1           0       -3.762782    0.592399    0.098647
     18          1           0       -2.086317    2.403653    0.087046
     19          1           0        1.252355   -1.559019    1.319095
     20          1           0        3.177516    0.032944   -1.694391
     21          1           0        1.842329    0.314574    2.441226
 ---------------------------------------------------------------------
 Rotational constants (GHZ):           2.5311062           0.9725739           0.9363006
 Standard basis: def2TZVP (5D, 7F)
 There are   426 symmetry adapted cartesian basis functions of A   symmetry.
 There are   376 symmetry adapted basis functions of A   symmetry.
   376 basis functions,   598 primitive gaussians,   426 cartesian basis functions
    36 alpha electrons       36 beta electrons
       nuclear repulsion energy       514.7784048724 Hartrees.
 NAtoms=   21 NActive=   21 NUniq=   21 SFac= 1.00D+00 NAtFMM=   60 NAOKFM=F Big=F
 Integral buffers will be    131072 words long.
 Raffenetti 2 integral format.
 Two-electron integral symmetry is turned on.
 ------------------------------------------------------------------------------
 Polarizable Continuum Model (PCM)
 =================================
 Model                : PCM.
 Atomic radii         : SMD-Coulomb.
 Polarization charges : Total charges.
 Charge compensation  : None.
 Solution method      : On-the-fly selection.
 Cavity type          : VdW (van der Waals Surface) (Alpha=1.000).
 Cavity algorithm     : GePol (No added spheres)
                        Default sphere list used, NSphG=   21.
                        Lebedev-Laikov grids with approx.  5.0 points / Ang**2.
                        Smoothing algorithm: York/Karplus (Gamma=1.0000).
                        Polarization charges: spherical gaussians, with
                                              point-specific exponents (IZeta= 3).
                        Self-potential: point-specific (ISelfS= 7).
                        Self-field    : sphere-specific E.n sum rule (ISelfD= 2).
 1st derivatives      : Analytical E(r).r(x)/FMM algorithm (CHGder, D1EAlg=3).
                        Cavity 1st derivative terms included.
 Solvent              : Water, Eps=  78.355300 Eps(inf)=   1.777849
 ------------------------------------------------------------------------------
 ------------------------------------------------------------------------------
 Atomic radii for non-electrostatic terms: SMD-CDS.
 ------------------------------------------------------------------------------
 Nuclear repulsion after PCM non-electrostatic terms =      514.7854820351 Hartrees.
 One-electron integrals computed using PRISM.
   1 Symmetry operations used in ECPInt.
 ECPInt:  NShTT=   11935 NPrTT=   35764 LenC2=   11631 LenP2D=   27519.
 LDataN:  DoStor=T MaxTD1= 6 Len=  172
 NBasis=   376 RedAO= T EigKep=  8.09D-06  NBF=   376
 NBsUse=   376 1.00D-06 EigRej= -1.00D+00 NBFU=   376
 ExpMin= 9.52D-02 ExpMax= 2.70D+04 ExpMxC= 9.22D+02 IAcc=3 IRadAn=         5 AccDes= 0.00D+00
 Harris functional with IExCor= 1009 and IRadAn=       5 diagonalized for initial guess.
 HarFok:  IExCor= 1009 AccDes= 0.00D+00 IRadAn=         5 IDoV= 1 UseB2=F ITyADJ=14
 ICtDFT=  3500011 ScaDFX=  1.000000  1.000000  1.000000  1.000000
 FoFCou: FMM=F IPFlag=           0 FMFlag=      100000 FMFlg1=           0
         NFxFlg=           0 DoJE=T BraDBF=F KetDBF=T FulRan=T
         wScrn=  0.000000 ICntrl=       500 IOpCl=  0 I1Cent=   200000004 NGrid=           0
         NMat0=    1 NMatS0=      1 NMatT0=    0 NMatD0=    1 NMtDS0=    0 NMtDT0=    0
 Petite list used in FoFCou.
 Requested convergence on RMS density matrix=1.00D-08 within 128 cycles.
 Requested convergence on MAX density matrix=1.00D-06.
 Requested convergence on             energy=1.00D-06.
 No special actions if energy rises.
 Inv3:  Mode=1 IEnd=     7031883.
 Iteration    1 A*A^-1 deviation from unit magnitude is 4.33D-15 for   1527.
 Iteration    1 A*A^-1 deviation from orthogonality  is 3.16D-15 for   1097    222.
 Iteration    1 A^-1*A deviation from unit magnitude is 4.88D-15 for   1527.
 Iteration    1 A^-1*A deviation from orthogonality  is 1.67D-15 for   1531   1376.
 Error on total polarization charges =  0.04076
 SCF Done:  E(RM062X) =  -424.571100480     A.U. after   13 cycles
            NFock= 13  Conv=0.35D-08     -V/T= 2.0051
 SMD-CDS (non-electrostatic) energy       (kcal/mol) =       4.44
 (included in total energy above)

 **********************************************************************

            Population analysis using the SCF Density.

 **********************************************************************

 Orbital symmetries:
       Occupied  (A) (A) (A) (A) (A) (A) (A) (A) (A) (A) (A) (A)
                 (A) (A) (A) (A) (A) (A) (A) (A) (A) (A) (A) (A)
                 (A) (A) (A) (A) (A) (A) (A) (A) (A) (A) (A) (A)
       Virtual   (A) (A) (A) (A) (A) (A) (A) (A) (A) (A) (A) (A)
                 (A) (A) (A) (A) (A) (A) (A) (A) (A) (A) (A) (A)
                 (A) (A) (A) (A) (A) (A) (A) (A) (A) (A) (A) (A)
                 (A) (A) (A) (A) (A) (A) (A) (A) (A) (A) (A) (A)
                 (A) (A) (A) (A) (A) (A) (A) (A) (A) (A) (A) (A)
                 (A) (A) (A) (A) (A) (A) (A) (A) (A) (A) (A) (A)
                 (A) (A) (A) (A) (A) (A) (A) (A) (A) (A) (A) (A)
                 (A) (A) (A) (A) (A) (A) (A) (A) (A) (A) (A) (A)
                 (A) (A) (A) (A) (A) (A) (A) (A) (A) (A) (A) (A)
                 (A) (A) (A) (A) (A) (A) (A) (A) (A) (A) (A) (A)
                 (A) (A) (A) (A) (A) (A) (A) (A) (A) (A) (A) (A)
                 (A) (A) (A) (A) (A) (A) (A) (A) (A) (A) (A) (A)
                 (A) (A) (A) (A) (A) (A) (A) (A) (A) (A) (A) (A)
                 (A) (A) (A) (A) (A) (A) (A) (A) (A) (A) (A) (A)
                 (A) (A) (A) (A) (A) (A) (A) (A) (A) (A) (A) (A)
                 (A) (A) (A) (A) (A) (A) (A) (A) (A) (A) (A) (A)
                 (A) (A) (A) (A) (A) (A) (A) (A) (A) (A) (A) (A)
                 (A) (A) (A) (A) (A) (A) (A) (A) (A) (A) (A) (A)
                 (A) (A) (A) (A) (A) (A) (A) (A) (A) (A) (A) (A)
                 (A) (A) (A) (A) (A) (A) (A) (A) (A) (A) (A) (A)
                 (A) (A) (A) (A) (A) (A) (A) (A) (A) (A) (A) (A)
                 (A) (A) (A) (A) (A) (A) (A) (A) (A) (A) (A) (A)
                 (A) (A) (A) (A) (A) (A) (A) (A) (A) (A) (A) (A)
                 (A) (A) (A) (A) (A) (A) (A) (A) (A) (A) (A) (A)
                 (A) (A) (A) (A) (A) (A) (A) (A) (A) (A) (A) (A)
                 (A) (A) (A) (A) (A) (A) (A) (A) (A) (A) (A) (A)
                 (A) (A) (A) (A) (A) (A) (A) (A) (A) (A) (A) (A)
                 (A) (A) (A) (A) (A) (A) (A) (A) (A) (A) (A) (A)
                 (A) (A) (A) (A)
 The electronic state is 1-A.
 Alpha  occ. eigenvalues --  -19.69563 -10.67941 -10.59501 -10.59234 -10.57454
 Alpha  occ. eigenvalues --  -10.57380 -10.56960 -10.55723 -10.55668 -10.53660
 Alpha  occ. eigenvalues --   -1.23724  -1.01317  -0.95315  -0.87098  -0.84618
 Alpha  occ. eigenvalues --   -0.80925  -0.73046  -0.71329  -0.67961  -0.65609
 Alpha  occ. eigenvalues --   -0.61599  -0.58381  -0.55495  -0.54228  -0.52411
 Alpha  occ. eigenvalues --   -0.50993  -0.50580  -0.49025  -0.45943  -0.45338
 Alpha  occ. eigenvalues --   -0.44954  -0.44026  -0.41608  -0.39024  -0.33392
 Alpha  occ. eigenvalues --   -0.33208
 Alpha virt. eigenvalues --   -0.07162   0.00624   0.06351   0.07750   0.08839
 Alpha virt. eigenvalues --    0.09460   0.09907   0.12431   0.12925   0.13517
 Alpha virt. eigenvalues --    0.14459   0.14809   0.15711   0.17005   0.17327
 Alpha virt. eigenvalues --    0.18920   0.19308   0.19736   0.21451   0.23172
 Alpha virt. eigenvalues --    0.23753   0.24462   0.25557   0.25859   0.26439
 Alpha virt. eigenvalues --    0.27467   0.28108   0.28889   0.29652   0.30729
 Alpha virt. eigenvalues --    0.31728   0.33190   0.34938   0.35533   0.36765
 Alpha virt. eigenvalues --    0.37374   0.37623   0.38160   0.39568   0.40290
 Alpha virt. eigenvalues --    0.41425   0.41511   0.42548   0.43366   0.43729
 Alpha virt. eigenvalues --    0.44736   0.45194   0.45914   0.47582   0.48751
 Alpha virt. eigenvalues --    0.48845   0.49606   0.49926   0.51543   0.52161
 Alpha virt. eigenvalues --    0.52940   0.53244   0.53715   0.54252   0.55410
 Alpha virt. eigenvalues --    0.56160   0.57348   0.59246   0.60377   0.62703
 Alpha virt. eigenvalues --    0.64626   0.65985   0.70035   0.71112   0.71310
 Alpha virt. eigenvalues --    0.72377   0.73126   0.74256   0.76195   0.78705
 Alpha virt. eigenvalues --    0.79407   0.81476   0.82604   0.83294   0.87418
 Alpha virt. eigenvalues --    0.88081   0.90228   0.91520   0.92238   0.92929
 Alpha virt. eigenvalues --    0.93272   0.95388   0.97296   0.98804   1.01044
 Alpha virt. eigenvalues --    1.02450   1.04273   1.04556   1.05336   1.07796
 Alpha virt. eigenvalues --    1.10107   1.11386   1.12646   1.14048   1.15727
 Alpha virt. eigenvalues --    1.16149   1.17850   1.18648   1.22362   1.23727
 Alpha virt. eigenvalues --    1.24678   1.26921   1.27530   1.29228   1.29684
 Alpha virt. eigenvalues --    1.32168   1.32815   1.35125   1.35451   1.39457
 Alpha virt. eigenvalues --    1.42022   1.43128   1.45743   1.47519   1.48223
 Alpha virt. eigenvalues --    1.48747   1.50435   1.53615   1.54185   1.55360
 Alpha virt. eigenvalues --    1.57160   1.59289   1.59852   1.61116   1.61987
 Alpha virt. eigenvalues --    1.62693   1.64476   1.64843   1.66673   1.68177
 Alpha virt. eigenvalues --    1.69532   1.71775   1.72656   1.73733   1.74626
 Alpha virt. eigenvalues --    1.75420   1.78843   1.79094   1.80773   1.84857
 Alpha virt. eigenvalues --    1.86716   1.88621   1.90184   1.91984   1.93935
 Alpha virt. eigenvalues --    1.94207   1.98156   1.98912   2.00453   2.03683
 Alpha virt. eigenvalues --    2.04026   2.06010   2.08099   2.11085   2.13523
 Alpha virt. eigenvalues --    2.14820   2.16650   2.18811   2.20168   2.21670
 Alpha virt. eigenvalues --    2.22496   2.24677   2.25473   2.29077   2.30152
 Alpha virt. eigenvalues --    2.33507   2.35295   2.35844   2.37715   2.39381
 Alpha virt. eigenvalues --    2.40541   2.41842   2.44372   2.45979   2.49344
 Alpha virt. eigenvalues --    2.50643   2.53047   2.54897   2.55883   2.57074
 Alpha virt. eigenvalues --    2.58717   2.59727   2.60514   2.62829   2.64094
 Alpha virt. eigenvalues --    2.65486   2.66526   2.68179   2.68466   2.69717
 Alpha virt. eigenvalues --    2.70218   2.70709   2.72483   2.73801   2.74114
 Alpha virt. eigenvalues --    2.75146   2.76159   2.78467   2.79245   2.81489
 Alpha virt. eigenvalues --    2.83283   2.83508   2.84084   2.85692   2.87923
 Alpha virt. eigenvalues --    2.89633   2.90977   2.92826   2.95089   2.96861
 Alpha virt. eigenvalues --    2.98508   2.99654   3.00368   3.02669   3.03967
 Alpha virt. eigenvalues --    3.04767   3.06255   3.07913   3.09980   3.11410
 Alpha virt. eigenvalues --    3.12735   3.13460   3.13594   3.14377   3.15956
 Alpha virt. eigenvalues --    3.16823   3.17903   3.19702   3.20805   3.22802
 Alpha virt. eigenvalues --    3.24681   3.26704   3.27895   3.28631   3.30456
 Alpha virt. eigenvalues --    3.31539   3.32641   3.35359   3.36374   3.37987
 Alpha virt. eigenvalues --    3.40206   3.40409   3.41526   3.43365   3.44614
 Alpha virt. eigenvalues --    3.45209   3.46009   3.48513   3.50018   3.50438
 Alpha virt. eigenvalues --    3.54247   3.56709   3.57613   3.60447   3.62252
 Alpha virt. eigenvalues --    3.63861   3.65149   3.66822   3.67887   3.69259
 Alpha virt. eigenvalues --    3.72373   3.75713   3.78907   3.80251   3.82863
 Alpha virt. eigenvalues --    3.84393   3.88290   3.89181   3.94098   3.96309
 Alpha virt. eigenvalues --    3.97926   3.98708   4.01055   4.02213   4.05216
 Alpha virt. eigenvalues --    4.08448   4.14327   4.15543   4.17400   4.17877
 Alpha virt. eigenvalues --    4.18465   4.21468   4.21853   4.22699   4.25210
 Alpha virt. eigenvalues --    4.27031   4.29131   4.33498   4.37114   4.39070
 Alpha virt. eigenvalues --    4.41132   4.45896   4.50810   4.52092   4.56221
 Alpha virt. eigenvalues --    4.58999   4.62566   4.63708   4.66244   4.71666
 Alpha virt. eigenvalues --    4.72727   4.79158   4.83585   4.86810   4.89605
 Alpha virt. eigenvalues --    4.95599   5.06523   5.13908   5.17016   5.23504
 Alpha virt. eigenvalues --    5.27659   5.30572   5.37128   5.41275   5.51054
 Alpha virt. eigenvalues --    5.58718   5.84712   5.88477   6.10523   6.30669
 Alpha virt. eigenvalues --    6.40352   6.63525   6.77195   6.94068   7.18426
 Alpha virt. eigenvalues --   22.14125  22.51554  22.65723  22.72143  22.80171
 Alpha virt. eigenvalues --   22.86809  22.95263  22.96358  23.32334  44.06369
          Condensed to atoms (all electrons):
               1          2          3          4          5          6
     1  C    4.982617   0.474607  -0.023173  -0.073339  -0.028562   0.466578
     2  C    0.474607   5.041308   0.411053  -0.030962  -0.040558  -0.030311
     3  C   -0.023173   0.411053   5.399347   0.295160  -0.018949  -0.050387
     4  C   -0.073339  -0.030962   0.295160   5.200059   0.440102  -0.010457
     5  C   -0.028562  -0.040558  -0.018949   0.440102   4.973445   0.464340
     6  C    0.466578  -0.030311  -0.050387  -0.010457   0.464340   4.900729
     7  C    0.006443  -0.054272   0.070827  -0.030921   0.005548  -0.003119
     8  C    0.000387   0.001235  -0.000152  -0.020238   0.002911  -0.000303
     9  C   -0.003311   0.010294  -0.000256  -0.004607  -0.006059   0.000980
    10  O   -0.000673   0.002953  -0.054619   0.007169  -0.005251   0.001045
    11  H    0.423096  -0.035911   0.006068  -0.001283   0.004510  -0.032207
    12  H   -0.035551   0.412639  -0.028657   0.012346  -0.002966   0.005629
    13  H   -0.001409   0.006076  -0.047969   0.409686  -0.007784   0.003584
    14  H   -0.001535  -0.002513  -0.030590   0.008400  -0.000379   0.000426
    15  H   -0.000184   0.001015  -0.012657   0.001857   0.000874   0.000083
    16  H    0.000265  -0.000577   0.000816  -0.006020  -0.000251  -0.000138
    17  H   -0.032509   0.003568  -0.000130   0.005079  -0.032777   0.417766
    18  H    0.003705  -0.000235   0.004080  -0.031450   0.418271  -0.029976
    19  H   -0.001199  -0.004011  -0.020879   0.008247  -0.000542   0.000601
    20  H    0.000012  -0.000670   0.009345   0.000771  -0.000035  -0.000003
    21  H    0.000045  -0.000528  -0.003952   0.000312   0.000007  -0.000020
               7          8          9         10         11         12
     1  C    0.006443   0.000387  -0.003311  -0.000673   0.423096  -0.035551
     2  C   -0.054272   0.001235   0.010294   0.002953  -0.035911   0.412639
     3  C    0.070827  -0.000152  -0.000256  -0.054619   0.006068  -0.028657
     4  C   -0.030921  -0.020238  -0.004607   0.007169  -0.001283   0.012346
     5  C    0.005548   0.002911  -0.006059  -0.005251   0.004510  -0.002966
     6  C   -0.003119  -0.000303   0.000980   0.001045  -0.032207   0.005629
     7  C    5.362819   0.237754   0.264270  -0.071990  -0.000080  -0.007277
     8  C    0.237754   5.059157  -0.031239   0.000194   0.000007   0.000186
     9  C    0.264270  -0.031239   4.855460   0.366540  -0.000114  -0.001322
    10  O   -0.071990   0.000194   0.366540   7.877870   0.000002   0.000034
    11  H   -0.000080   0.000007  -0.000114   0.000002   0.447862  -0.003145
    12  H   -0.007277   0.000186  -0.001322   0.000034  -0.003145   0.440709
    13  H    0.004461  -0.007024  -0.004314   0.006394   0.000034   0.000021
    14  H    0.427036  -0.019984  -0.043609   0.001307  -0.000036   0.003013
    15  H   -0.015169   0.402721  -0.011538   0.004796  -0.000001   0.000028
    16  H   -0.047548   0.428867   0.007191  -0.000021   0.000003  -0.000055
    17  H    0.000013  -0.000000   0.000053   0.000001  -0.003368  -0.000113
    18  H   -0.000145   0.000079  -0.000125  -0.000070  -0.000136   0.000038
    19  H   -0.064814   0.001783   0.453393  -0.034397  -0.000048   0.001218
    20  H   -0.044090   0.416541  -0.001667   0.000113  -0.000000  -0.000031
    21  H    0.012236  -0.000260  -0.026125   0.309412   0.000001  -0.000009
              13         14         15         16         17         18
     1  C   -0.001409  -0.001535  -0.000184   0.000265  -0.032509   0.003705
     2  C    0.006076  -0.002513   0.001015  -0.000577   0.003568  -0.000235
     3  C   -0.047969  -0.030590  -0.012657   0.000816  -0.000130   0.004080
     4  C    0.409686   0.008400   0.001857  -0.006020   0.005079  -0.031450
     5  C   -0.007784  -0.000379   0.000874  -0.000251  -0.032777   0.418271
     6  C    0.003584   0.000426   0.000083  -0.000138   0.417766  -0.029976
     7  C    0.004461   0.427036  -0.015169  -0.047548   0.000013  -0.000145
     8  C   -0.007024  -0.019984   0.402721   0.428867  -0.000000   0.000079
     9  C   -0.004314  -0.043609  -0.011538   0.007191   0.000053  -0.000125
    10  O    0.006394   0.001307   0.004796  -0.000021   0.000001  -0.000070
    11  H    0.000034  -0.000036  -0.000001   0.000003  -0.003368  -0.000136
    12  H    0.000021   0.003013   0.000028  -0.000055  -0.000113   0.000038
    13  H    0.421240   0.000300   0.001035  -0.001006  -0.000120  -0.002277
    14  H    0.000300   0.446888   0.005197  -0.003353   0.000000   0.000008
    15  H    0.001035   0.005197   0.498350  -0.026786   0.000000   0.000020
    16  H   -0.001006  -0.003353  -0.026786   0.479854  -0.000001   0.000012
    17  H   -0.000120   0.000000   0.000000  -0.000001   0.446682  -0.003253
    18  H   -0.002277   0.000008   0.000020   0.000012  -0.003253   0.446028
    19  H    0.000241  -0.000181   0.000388  -0.000130   0.000004   0.000001
    20  H    0.000090  -0.006953  -0.020752  -0.018683   0.000000  -0.000002
    21  H   -0.000219  -0.000175  -0.000314   0.000019  -0.000001   0.000002
              19         20         21
     1  C   -0.001199   0.000012   0.000045
     2  C   -0.004011  -0.000670  -0.000528
     3  C   -0.020879   0.009345  -0.003952
     4  C    0.008247   0.000771   0.000312
     5  C   -0.000542  -0.000035   0.000007
     6  C    0.000601  -0.000003  -0.000020
     7  C   -0.064814  -0.044090   0.012236
     8  C    0.001783   0.416541  -0.000260
     9  C    0.453393  -0.001667  -0.026125
    10  O   -0.034397   0.000113   0.309412
    11  H   -0.000048  -0.000000   0.000001
    12  H    0.001218  -0.000031  -0.000009
    13  H    0.000241   0.000090  -0.000219
    14  H   -0.000181  -0.006953  -0.000175
    15  H    0.000388  -0.020752  -0.000314
    16  H   -0.000130  -0.018683   0.000019
    17  H    0.000004   0.000000  -0.000001
    18  H    0.000001  -0.000002   0.000002
    19  H    0.431342   0.000061  -0.007334
    20  H    0.000061   0.479825  -0.000038
    21  H   -0.007334  -0.000038   0.291401
 Mulliken charges:
               1
     1  C   -0.156308
     2  C   -0.164199
     3  C    0.095674
     4  C   -0.179910
     5  C   -0.165893
     6  C   -0.104839
     7  C   -0.051982
     8  C   -0.472622
     9  C    0.176105
    10  O   -0.410807
    11  H    0.194748
    12  H    0.203267
    13  H    0.218959
    14  H    0.216733
    15  H    0.171038
    16  H    0.187543
    17  H    0.199105
    18  H    0.195427
    19  H    0.236257
    20  H    0.186164
    21  H    0.425541
 Sum of Mulliken charges =   1.00000
 Mulliken charges with hydrogens summed into heavy atoms:
               1
     1  C    0.038440
     2  C    0.039067
     3  C    0.095674
     4  C    0.039048
     5  C    0.029534
     6  C    0.094266
     7  C    0.164751
     8  C    0.072123
     9  C    0.412363
    10  O    0.014734
 Electronic spatial extent (au):  <R**2>=           1395.2820
 Charge=              1.0000 electrons
 Dipole moment (field-independent basis, Debye):
    X=              1.5300    Y=             -2.3119    Z=              2.5799  Tot=              3.7871
 Quadrupole moment (field-independent basis, Debye-Ang):
   XX=            -39.4151   YY=            -45.6098   ZZ=            -47.4671
   XY=             -3.4605   XZ=              2.9365   YZ=             -0.3897
 Traceless Quadrupole moment (field-independent basis, Debye-Ang):
   XX=              4.7489   YY=             -1.4459   ZZ=             -3.3031
   XY=             -3.4605   XZ=              2.9365   YZ=             -0.3897
 Octapole moment (field-independent basis, Debye-Ang**2):
  XXX=            -18.0213  YYY=             -5.5194  ZZZ=             34.5125  XYY=             -1.9693
  XXY=             -3.8486  XXZ=              6.3065  XZZ=             32.8576  YZZ=             -1.5448
  YYZ=              3.1503  XYZ=             -1.8265
 Hexadecapole moment (field-independent basis, Debye-Ang**3):
 XXXX=          -1013.1514 YYYY=           -308.4011 ZZZZ=           -201.3742 XXXY=            -12.9030
 XXXZ=              3.1443 YYYX=             -6.1287 YYYZ=              4.5496 ZZZX=             60.9112
 ZZZY=              6.1230 XXYY=           -223.7684 XXZZ=           -217.1805 YYZZ=           -107.2936
 XXYZ=              2.6021 YYXZ=              5.5467 ZZXY=             -0.8857
 N-N= 5.147854820351D+02 E-N=-2.003290499721D+03  KE= 4.224269185483D+02
   1 Symmetry operations used in ECPInt.
 ECPInt:  NShTT=   11935 NPrTT=   35764 LenC2=   11631 LenP2D=   27519.
 LDataN:  DoStor=T MaxTD1= 7 Len=  274
 D1PCM: PCM CHGder 1st derivatives, ID1Alg=3 FixD1E=F DoIter=F DoCFld=F I1PDM=0.
 Calling FoFJK, ICntrl=      2127 FMM=F ISym2X=0 I1Cent= 0 IOpClX= 0 NMat=1 NMatS=1 NMatT=0.
 ***** Axes restored to original set *****
 -------------------------------------------------------------------
 Center     Atomic                   Forces (Hartrees/Bohr)
 Number     Number              X              Y              Z
 -------------------------------------------------------------------
      1        6          -0.001260025   -0.001701959   -0.000110118
      2        6           0.002880267   -0.000649929    0.006661743
      3        6          -0.028420618    0.003505981   -0.007024663
      4        6           0.004845644    0.002779704   -0.003908371
      5        6           0.000604303   -0.000560713    0.000908848
      6        6           0.003818917    0.002323090   -0.000276542
      7        6           0.010401507   -0.011616427    0.003467657
      8        6          -0.000219584   -0.002072432    0.000771582
      9        6           0.013949030    0.011451541   -0.002263705
     10        8          -0.000715671    0.005043275    0.007467609
     11        1          -0.000450901    0.000139815   -0.002058564
     12        1           0.002397080    0.001256454   -0.000722080
     13        1           0.000368873   -0.000412616    0.002574940
     14        1          -0.000657947   -0.005785670   -0.003184338
     15        1          -0.001197338   -0.000661160    0.001722811
     16        1          -0.001517494   -0.000067319   -0.000095610
     17        1          -0.002044311   -0.000868088   -0.000574455
     18        1          -0.000995181   -0.001029833    0.001452945
     19        1          -0.001977617   -0.002363430    0.002174309
     20        1           0.001511674    0.000262408   -0.000574189
     21        1          -0.001320609    0.001027306   -0.006409806
 -------------------------------------------------------------------
 Cartesian Forces:  Max     0.028420618 RMS     0.005357560

 GradGradGradGradGradGradGradGradGradGradGradGradGradGradGradGradGradGrad
 Berny optimization.
 FormGI is forming the generalized inverse of G from B-inverse, IUseBI=4.
 Internal  Forces:  Max     0.011998846 RMS     0.002645115
 Search for a local minimum.
 Step number   1 out of a maximum of  121
 All quantities printed in internal units (Hartrees-Bohrs-Radians)
 Mixed Optimization -- RFO/linear search
 Second derivative matrix not updated -- first step.
 ITU=  0
     Eigenvalues ---    0.00701   0.01970   0.01978   0.02092   0.02129
     Eigenvalues ---    0.02206   0.02222   0.02251   0.02298   0.02305
     Eigenvalues ---    0.02378   0.02821   0.02829   0.03232   0.04054
     Eigenvalues ---    0.05648   0.05975   0.06080   0.07071   0.11849
     Eigenvalues ---    0.13194   0.15997   0.16000   0.16000   0.16000
     Eigenvalues ---    0.16000   0.16000   0.16000   0.16000   0.16000
     Eigenvalues ---    0.17293   0.18596   0.20362   0.21693   0.21999
     Eigenvalues ---    0.22000   0.23837   0.31428   0.31869   0.35022
     Eigenvalues ---    0.35178   0.35207   0.35347   0.35351   0.35973
     Eigenvalues ---    0.36104   0.36128   0.36165   0.36171   0.40315
     Eigenvalues ---    0.42199   0.45677   0.45884   0.47923   0.49482
     Eigenvalues ---    0.53656   0.63436
 RFO step:  Lambda=-5.20480570D-03 EMin= 7.01120440D-03
 Linear search not attempted -- first point.
 Iteration  1 RMS(Cart)=  0.02408486 RMS(Int)=  0.00055933
 Iteration  2 RMS(Cart)=  0.00053509 RMS(Int)=  0.00020368
 Iteration  3 RMS(Cart)=  0.00000032 RMS(Int)=  0.00020368
 Variable       Old X    -DE/DX   Delta X   Delta X   Delta X     New X
                                 (Linear)    (Quad)   (Total)
    R1        2.60376   0.00124   0.00000   0.00245   0.00245   2.60622
    R2        2.62939  -0.00048   0.00000   0.00058   0.00052   2.62991
    R3        2.03815   0.00210   0.00000   0.00572   0.00572   2.04387
    R4        2.66878  -0.00577   0.00000  -0.01480  -0.01473   2.65405
    R5        2.04124   0.00243   0.00000   0.00665   0.00665   2.04789
    R6        2.66437  -0.00418   0.00000  -0.01108  -0.01101   2.65336
    R7        2.97461   0.00124   0.00000   0.00387   0.00448   2.97908
    R8        3.37857   0.00974   0.00000   0.10569   0.10521   3.48378
    R9        2.60406  -0.00006   0.00000  -0.00007  -0.00007   2.60399
   R10        2.03881   0.00259   0.00000   0.00707   0.00707   2.04589
   R11        2.62841   0.00138   0.00000   0.00452   0.00445   2.63286
   R12        2.03824   0.00204   0.00000   0.00555   0.00555   2.04380
   R13        2.03920   0.00229   0.00000   0.00625   0.00625   2.04545
   R14        2.84385   0.00088   0.00000   0.00273   0.00273   2.84658
   R15        2.72892  -0.01058   0.00000  -0.04490  -0.04495   2.68397
   R16        2.05109  -0.00206   0.00000  -0.00575  -0.00575   2.04534
   R17        2.05115   0.00153   0.00000   0.00427   0.00427   2.05543
   R18        2.05387   0.00125   0.00000   0.00349   0.00349   2.05736
   R19        2.05639   0.00124   0.00000   0.00348   0.00348   2.05988
   R20        2.48321  -0.00354   0.00000  -0.00553  -0.00553   2.47768
   R21        2.05341  -0.00226   0.00000  -0.00634  -0.00634   2.04707
   R22        1.83046   0.00058   0.00000   0.00107   0.00107   1.83153
    A1        2.09579  -0.00195   0.00000  -0.00779  -0.00779   2.08800
    A2        2.09149   0.00081   0.00000   0.00292   0.00292   2.09440
    A3        2.09590   0.00113   0.00000   0.00487   0.00487   2.10077
    A4        2.10011   0.00075   0.00000  -0.00257  -0.00246   2.09765
    A5        2.09496   0.00101   0.00000   0.00980   0.00971   2.10467
    A6        2.08797  -0.00176   0.00000  -0.00702  -0.00711   2.08086
    A7        2.07348   0.00202   0.00000   0.01429   0.01408   2.08756
    A8        2.06973   0.00080   0.00000   0.00465   0.00394   2.07367
    A9        1.99462  -0.00117   0.00000  -0.01624  -0.01604   1.97858
   A10        2.10450  -0.00177   0.00000  -0.00378  -0.00451   2.09999
   A11        1.99271   0.00115   0.00000  -0.00446  -0.00455   1.98816
   A12        2.09801   0.00005   0.00000  -0.00559  -0.00547   2.09254
   A13        2.08740   0.00046   0.00000   0.00574   0.00567   2.09307
   A14        2.09776  -0.00052   0.00000  -0.00019  -0.00026   2.09751
   A15        2.09893  -0.00144   0.00000  -0.00538  -0.00539   2.09354
   A16        2.08915   0.00055   0.00000   0.00167   0.00167   2.09082
   A17        2.09510   0.00089   0.00000   0.00371   0.00371   2.09880
   A18        2.09992   0.00057   0.00000   0.00689   0.00682   2.10674
   A19        2.09136  -0.00023   0.00000  -0.00310  -0.00307   2.08828
   A20        2.09190  -0.00034   0.00000  -0.00381  -0.00379   2.08811
   A21        2.06172  -0.00334   0.00000  -0.01550  -0.01577   2.04595
   A22        1.91286  -0.00404   0.00000  -0.03352  -0.03343   1.87943
   A23        2.10494  -0.00128   0.00000   0.00113   0.00123   2.10617
   A24        1.98309   0.00579   0.00000   0.02726   0.02705   2.01014
   A25        2.02074  -0.00490   0.00000  -0.03591  -0.03584   1.98490
   A26        1.95327   0.00164   0.00000   0.00977   0.00978   1.96305
   A27        1.93213  -0.00095   0.00000  -0.00721  -0.00721   1.92492
   A28        1.89017  -0.00131   0.00000  -0.00630  -0.00630   1.88387
   A29        1.91455  -0.00074   0.00000  -0.00734  -0.00733   1.90722
   A30        1.88597   0.00025   0.00000   0.00435   0.00436   1.89032
   A31        1.88578   0.00112   0.00000   0.00704   0.00702   1.89280
   A32        2.01173  -0.00004   0.00000   0.00523   0.00559   2.01731
   A33        1.83894   0.00021   0.00000  -0.01478  -0.01435   1.82459
   A34        2.10917  -0.00191   0.00000  -0.01179  -0.01176   2.09742
   A35        2.08528   0.00265   0.00000   0.02536   0.02496   2.11024
   A36        2.07096  -0.00053   0.00000  -0.00590  -0.00629   2.06467
   A37        2.00458  -0.01200   0.00000  -0.07263  -0.07263   1.93195
    D1       -0.00188   0.00023   0.00000   0.00206   0.00201   0.00013
    D2       -3.12529  -0.00007   0.00000  -0.01144  -0.01158  -3.13688
    D3        3.13462   0.00013   0.00000   0.00311   0.00312   3.13774
    D4        0.01121  -0.00016   0.00000  -0.01039  -0.01048   0.00073
    D5       -0.00325  -0.00024   0.00000  -0.00886  -0.00886  -0.01210
    D6       -3.14044  -0.00013   0.00000  -0.00261  -0.00258   3.14016
    D7       -3.13974  -0.00015   0.00000  -0.00990  -0.00996   3.13349
    D8        0.00625  -0.00004   0.00000  -0.00365  -0.00368   0.00257
    D9        0.01248  -0.00002   0.00000   0.00757   0.00769   0.02016
   D10       -2.84798  -0.00377   0.00000  -0.05045  -0.05061  -2.89860
   D11        2.44770   0.00310   0.00000  -0.00347  -0.00357   2.44412
   D12        3.13596   0.00031   0.00000   0.02118   0.02127  -3.12595
   D13        0.27550  -0.00345   0.00000  -0.03683  -0.03703   0.23847
   D14       -0.71200   0.00342   0.00000   0.01014   0.01001  -0.70199
   D15       -0.01823  -0.00017   0.00000  -0.01045  -0.01054  -0.02878
   D16        3.11767  -0.00044   0.00000  -0.01743  -0.01749   3.10017
   D17        2.83646   0.00411   0.00000   0.05023   0.05011   2.88657
   D18       -0.31082   0.00383   0.00000   0.04325   0.04316  -0.26767
   D19       -2.45419  -0.00239   0.00000   0.00511   0.00512  -2.44906
   D20        0.68171  -0.00267   0.00000  -0.00187  -0.00183   0.67989
   D21        2.53199   0.00293   0.00000   0.01371   0.01394   2.54593
   D22        0.22339   0.00176   0.00000   0.02313   0.02279   0.24618
   D23       -0.32331  -0.00154   0.00000  -0.04840  -0.04789  -0.37120
   D24       -2.63191  -0.00271   0.00000  -0.03898  -0.03903  -2.67095
   D25       -2.44948  -0.00175   0.00000  -0.01147  -0.01161  -2.46110
   D26       -0.13147  -0.00231   0.00000  -0.02858  -0.02846  -0.15993
   D27        0.01896   0.00164   0.00000  -0.01393  -0.01413   0.00483
   D28        2.33697   0.00107   0.00000  -0.03104  -0.03098   2.30599
   D29        0.01341   0.00012   0.00000   0.00366   0.00365   0.01706
   D30       -3.13097  -0.00004   0.00000  -0.00007  -0.00005  -3.13102
   D31       -3.12246   0.00040   0.00000   0.01067   0.01060  -3.11186
   D32        0.01635   0.00024   0.00000   0.00694   0.00690   0.02325
   D33       -0.00256   0.00007   0.00000   0.00597   0.00600   0.00344
   D34        3.13464  -0.00004   0.00000  -0.00028  -0.00027   3.13436
   D35       -3.14135   0.00023   0.00000   0.00971   0.00971  -3.13164
   D36       -0.00416   0.00013   0.00000   0.00346   0.00344  -0.00072
   D37        1.09488   0.00248   0.00000   0.01015   0.01047   1.10535
   D38       -1.04680   0.00295   0.00000   0.01791   0.01825  -1.02856
   D39       -3.11121   0.00293   0.00000   0.01734   0.01766  -3.09355
   D40       -0.39599  -0.00315   0.00000  -0.05206  -0.05231  -0.44830
   D41       -2.53767  -0.00267   0.00000  -0.04431  -0.04454  -2.58221
   D42        1.68111  -0.00269   0.00000  -0.04487  -0.04512   1.63599
   D43       -2.91131  -0.00093   0.00000  -0.02787  -0.02795  -2.93926
   D44        1.23019  -0.00045   0.00000  -0.02011  -0.02018   1.21001
   D45       -0.83421  -0.00048   0.00000  -0.02067  -0.02076  -0.85497
   D46        0.19107  -0.00115   0.00000   0.00628   0.00652   0.19759
   D47       -2.74640  -0.00233   0.00000  -0.03667  -0.03708  -2.78348
   D48        2.69369   0.00021   0.00000   0.00317   0.00352   2.69721
   D49       -0.24378  -0.00097   0.00000  -0.03977  -0.04009  -0.28386
   D50        1.88576  -0.00006   0.00000  -0.01205  -0.01157   1.87419
   D51        3.02580  -0.00136   0.00000  -0.03550  -0.03569   2.99010
   D52       -0.31828   0.00018   0.00000   0.01069   0.01041  -0.30787
         Item               Value     Threshold  Converged?
 Maximum Force            0.011999     0.000450     NO 
 RMS     Force            0.002645     0.000300     NO 
 Maximum Displacement     0.090886     0.001800     NO 
 RMS     Displacement     0.024171     0.001200     NO 
 Predicted change in Energy=-2.755265D-03
 GradGradGradGradGradGradGradGradGradGradGradGradGradGradGradGradGradGrad

                          Input orientation:                          
 ---------------------------------------------------------------------
 Center     Atomic      Atomic             Coordinates (Angstroms)
 Number     Number       Type             X           Y           Z
 ---------------------------------------------------------------------
      1          6           0       16.195768   23.078524   70.928475
      2          6           0       17.374980   23.677161   71.319819
      3          6           0       17.786163   23.617094   72.661397
      4          6           0       17.001994   22.923285   73.596913
      5          6           0       15.819801   22.336156   73.201305
      6          6           0       15.415394   22.414690   71.870355
      7          6           0       18.942373   24.573300   73.145221
      8          6           0       18.862767   25.091068   74.557543
      9          6           0       19.599051   23.346880   72.859028
     10          8           0       19.948721   22.543356   73.834293
     11          1           0       15.880207   23.129692   69.895229
     12          1           0       17.992400   24.201862   70.600182
     13          1           0       17.333427   22.840994   74.624281
     14          1           0       19.082841   25.330367   72.384566
     15          1           0       18.924327   24.295117   75.296281
     16          1           0       17.938222   25.646915   74.704314
     17          1           0       14.489194   21.945910   71.563761
     18          1           0       15.212159   21.810521   73.925312
     19          1           0       19.951494   23.124539   71.859126
     20          1           0       19.701608   25.769283   74.714245
     21          1           0       20.259235   21.694643   73.484118
 ---------------------------------------------------------------------
                    Distance matrix (angstroms):
                    1          2          3          4          5
     1  C    0.000000
     2  C    1.379151   0.000000
     3  C    2.412972   1.404461   0.000000
     4  C    2.791892   2.427469   1.404095   0.000000
     5  C    2.420375   2.785115   2.408087   1.377972   0.000000
     6  C    1.391688   2.395182   2.773458   2.399369   1.393248
     7  C    3.833035   2.567466   1.576463   2.586822   3.841668
     8  C    4.932884   3.833471   2.631928   3.014062   4.323027
     9  C    3.921911   2.724839   1.843539   2.732876   3.927015
    10  O    4.776488   3.772564   2.684260   2.980586   4.182294
    11  H    1.081570   2.136240   3.394394   3.873432   3.400512
    12  H    2.144190   1.083695   2.152462   3.405299   3.868706
    13  H    3.874231   3.408867   2.158753   1.082637   2.137939
    14  H    3.940329   2.604529   2.166406   3.404960   4.503309
    15  H    5.291773   4.312146   2.949195   2.909491   4.226646
    16  H    4.887713   3.956259   2.883888   3.085615   4.208072
    17  H    2.144480   3.374092   3.855861   3.376852   2.145776
    18  H    3.399463   3.866618   3.389201   2.132978   1.081530
    19  H    3.869588   2.689735   2.361124   3.429280   4.415187
    20  H    5.819205   4.616525   3.537659   4.078732   5.398497
    21  H    4.995819   4.115033   3.238637   3.483088   4.494451
                    6          7          8          9         10
     6  C    0.000000
     7  C    4.327177   0.000000
     8  C    5.125267   1.506344   0.000000
     9  C    4.398800   1.420296   2.543474   0.000000
    10  O    4.942132   2.368170   2.862380   1.311129   0.000000
    11  H    2.151372   4.692900   5.871953   4.760365   5.693226
    12  H    3.383531   2.741831   4.148365   2.900812   4.127628
    13  H    3.383001   2.788765   2.721428   2.916349   2.748169
    14  H    4.713359   1.082348   2.197162   2.103761   3.258663
    15  H    5.252198   2.169049   1.087686   2.700854   2.501092
    16  H    4.984302   2.142834   1.088710   3.384316   3.798831
    17  H    1.082405   5.406939   6.163026   5.454454   5.942953
    18  H    2.151552   4.707014   4.948599   4.768876   4.793782
    19  H    4.591320   2.184325   3.511982   1.083261   2.058899
    20  H    6.141061   2.113918   1.090039   3.052931   3.352907
    21  H    5.156112   3.183653   3.825973   1.885860   0.969204
                   11         12         13         14         15
    11  H    0.000000
    12  H    2.471410   0.000000
    13  H    4.955716   4.298788   0.000000
    14  H    4.614828   2.376261   3.778062   0.000000
    15  H    6.308427   4.788584   2.257659   3.094342   0.000000
    16  H    5.805096   4.351439   2.871476   2.606067   1.774876
    17  H    2.473915   4.276711   4.272893   5.764535   6.254669
    18  H    4.292793   4.950226   2.459717   5.453934   4.672575
    19  H    4.520210   2.565856   3.818475   2.428235   3.773508
    20  H    6.692792   4.722681   3.767128   2.450086   1.765247
    21  H    5.840837   4.443172   3.342820   3.976356   3.439242
                   16         17         18         19         20
    16  H    0.000000
    17  H    5.954520   0.000000
    18  H    4.770344   2.473446   0.000000
    19  H    4.302411   5.595814   5.334516   0.000000
    20  H    1.767654   7.191174   6.037330   3.899848   0.000000
    21  H    4.743041   6.086401   5.067648   2.186300   4.292652
                   21
    21  H    0.000000
 Stoichiometry    C9H11O(1+)
 Framework group  C1[X(C9H11O)]
 Deg. of freedom    57
 Full point group                 C1      NOp   1
 Largest Abelian subgroup         C1      NOp   1
 Largest concise Abelian subgroup C1      NOp   1
                         Standard orientation:                         
 ---------------------------------------------------------------------
 Center     Atomic      Atomic             Coordinates (Angstroms)
 Number     Number       Type             X           Y           Z
 ---------------------------------------------------------------------
      1          6           0       -2.317429   -0.978702   -0.085594
      2          6           0       -0.976407   -1.273872   -0.214405
      3          6           0       -0.021194   -0.244572   -0.189477
      4          6           0       -0.437608    1.084051   -0.008248
      5          6           0       -1.779758    1.373114    0.109566
      6          6           0       -2.718945    0.344800    0.069078
      7          6           0        1.448431   -0.560217   -0.664669
      8          6           0        2.196538    0.541366   -1.368887
      9          6           0        1.503318   -0.684515    0.749112
     10          8           0        2.018296    0.277703    1.475745
     11          1           0       -3.050742   -1.773377   -0.108790
     12          1           0       -0.646876   -2.298583   -0.339997
     13          1           0        0.297088    1.877081    0.050311
     14          1           0        1.429091   -1.509166   -1.184861
     15          1           0        2.362572    1.405711   -0.729823
     16          1           0        1.657315    0.852932   -2.261891
     17          1           0       -3.771456    0.576886    0.168859
     18          1           0       -2.099361    2.398169    0.239269
     19          1           0        1.262455   -1.622249    1.235009
     20          1           0        3.166966    0.147883   -1.671586
     21          1           0        1.864908    0.114371    2.418693
 ---------------------------------------------------------------------
 Rotational constants (GHZ):           2.5538923           0.9669801           0.9279017
 Standard basis: def2TZVP (5D, 7F)
 There are   426 symmetry adapted cartesian basis functions of A   symmetry.
 There are   376 symmetry adapted basis functions of A   symmetry.
   376 basis functions,   598 primitive gaussians,   426 cartesian basis functions
    36 alpha electrons       36 beta electrons
       nuclear repulsion energy       514.5148061666 Hartrees.
 NAtoms=   21 NActive=   21 NUniq=   21 SFac= 1.00D+00 NAtFMM=   60 NAOKFM=F Big=F
 Integral buffers will be    131072 words long.
 Raffenetti 2 integral format.
 Two-electron integral symmetry is turned on.
 ------------------------------------------------------------------------------
 Polarizable Continuum Model (PCM)
 =================================
 Model                : PCM.
 Atomic radii         : SMD-Coulomb.
 Polarization charges : Total charges.
 Charge compensation  : None.
 Solution method      : On-the-fly selection.
 Cavity type          : VdW (van der Waals Surface) (Alpha=1.000).
 Cavity algorithm     : GePol (No added spheres)
                        Default sphere list used, NSphG=   21.
                        Lebedev-Laikov grids with approx.  5.0 points / Ang**2.
                        Smoothing algorithm: York/Karplus (Gamma=1.0000).
                        Polarization charges: spherical gaussians, with
                                              point-specific exponents (IZeta= 3).
                        Self-potential: point-specific (ISelfS= 7).
                        Self-field    : sphere-specific E.n sum rule (ISelfD= 2).
 1st derivatives      : Analytical E(r).r(x)/FMM algorithm (CHGder, D1EAlg=3).
                        Cavity 1st derivative terms included.
 Solvent              : Water, Eps=  78.355300 Eps(inf)=   1.777849
 ------------------------------------------------------------------------------
 ------------------------------------------------------------------------------
 Atomic radii for non-electrostatic terms: SMD-CDS.
 ------------------------------------------------------------------------------
 Nuclear repulsion after PCM non-electrostatic terms =      514.5219368024 Hartrees.
 One-electron integrals computed using PRISM.
   1 Symmetry operations used in ECPInt.
 ECPInt:  NShTT=   11935 NPrTT=   35764 LenC2=   11626 LenP2D=   27509.
 LDataN:  DoStor=T MaxTD1= 6 Len=  172
 NBasis=   376 RedAO= T EigKep=  8.08D-06  NBF=   376
 NBsUse=   376 1.00D-06 EigRej= -1.00D+00 NBFU=   376
 Initial guess from the checkpoint file:  "/home/data/vip13t32/docs/g16out/mol_for_md/H_RPP/water.chk"
 B after Tr=    -0.000000   -0.000000    0.000000
         Rot=    0.999551   -0.029694   -0.003950   -0.000613 Ang=  -3.43 deg.
 ExpMin= 9.52D-02 ExpMax= 2.70D+04 ExpMxC= 9.22D+02 IAcc=3 IRadAn=         5 AccDes= 0.00D+00
 Harris functional with IExCor= 1009 and IRadAn=       5 diagonalized for initial guess.
 HarFok:  IExCor= 1009 AccDes= 0.00D+00 IRadAn=         5 IDoV= 1 UseB2=F ITyADJ=14
 ICtDFT=  3500011 ScaDFX=  1.000000  1.000000  1.000000  1.000000
 FoFCou: FMM=F IPFlag=           0 FMFlag=      100000 FMFlg1=           0
         NFxFlg=           0 DoJE=T BraDBF=F KetDBF=T FulRan=T
         wScrn=  0.000000 ICntrl=       500 IOpCl=  0 I1Cent=   200000004 NGrid=           0
         NMat0=    1 NMatS0=      1 NMatT0=    0 NMatD0=    1 NMtDS0=    0 NMtDT0=    0
 Petite list used in FoFCou.
 Requested convergence on RMS density matrix=1.00D-08 within 128 cycles.
 Requested convergence on MAX density matrix=1.00D-06.
 Requested convergence on             energy=1.00D-06.
 No special actions if energy rises.
 Inv3:  Mode=1 IEnd=     7124043.
 Iteration    1 A*A^-1 deviation from unit magnitude is 5.77D-15 for   1540.
 Iteration    1 A*A^-1 deviation from orthogonality  is 2.65D-15 for   1533   1312.
 Iteration    1 A^-1*A deviation from unit magnitude is 6.22D-15 for   1540.
 Iteration    1 A^-1*A deviation from orthogonality  is 2.11D-15 for   1531   1469.
 Error on total polarization charges =  0.04094
 SCF Done:  E(RM062X) =  -424.574709191     A.U. after   11 cycles
            NFock= 11  Conv=0.41D-08     -V/T= 2.0050
 SMD-CDS (non-electrostatic) energy       (kcal/mol) =       4.47
 (included in total energy above)
   1 Symmetry operations used in ECPInt.
 ECPInt:  NShTT=   11935 NPrTT=   35764 LenC2=   11626 LenP2D=   27509.
 LDataN:  DoStor=T MaxTD1= 7 Len=  274
 D1PCM: PCM CHGder 1st derivatives, ID1Alg=3 FixD1E=F DoIter=F DoCFld=F I1PDM=0.
 Calling FoFJK, ICntrl=      2127 FMM=F ISym2X=0 I1Cent= 0 IOpClX= 0 NMat=1 NMatS=1 NMatT=0.
 ***** Axes restored to original set *****
 -------------------------------------------------------------------
 Center     Atomic                   Forces (Hartrees/Bohr)
 Number     Number              X              Y              Z
 -------------------------------------------------------------------
      1        6          -0.001917641   -0.001607243    0.000417972
      2        6           0.004396874    0.000309189    0.002716856
      3        6          -0.021682623    0.003805238   -0.003249429
      4        6           0.005556861    0.001027622   -0.000483150
      5        6          -0.001367985   -0.000925944   -0.001456786
      6        6           0.000539819    0.000088473   -0.000219851
      7        6           0.000412479   -0.001031517    0.001835820
      8        6           0.000707756    0.000445191    0.000348680
      9        6           0.017768369    0.000184932    0.005854436
     10        8          -0.002147758    0.001602558   -0.004289469
     11        1          -0.000041327   -0.000003150    0.000122156
     12        1          -0.000056470    0.000336116    0.000200145
     13        1          -0.000414401    0.000380628    0.000073828
     14        1          -0.000648310   -0.000472068   -0.001555654
     15        1          -0.000503377    0.000027817   -0.000374172
     16        1           0.000011677   -0.000120987   -0.000355775
     17        1          -0.000125934    0.000039078    0.000049032
     18        1          -0.000118388    0.000022967   -0.000176877
     19        1          -0.001485403   -0.002051049   -0.000444768
     20        1           0.000139191   -0.000268695    0.000352833
     21        1           0.000976592   -0.001789158    0.000634171
 -------------------------------------------------------------------
 Cartesian Forces:  Max     0.021682623 RMS     0.003908393

 GradGradGradGradGradGradGradGradGradGradGradGradGradGradGradGradGradGrad
 Berny optimization.
 Using GEDIIS/GDIIS optimizer.
 FormGI is forming the generalized inverse of G from B-inverse, IUseBI=4.
 Internal  Forces:  Max     0.010764166 RMS     0.001430306
 Search for a local minimum.
 Step number   2 out of a maximum of  121
 All quantities printed in internal units (Hartrees-Bohrs-Radians)
 Mixed Optimization -- RFO/linear search
 Update second derivatives using D2CorX and points    1    2
 DE= -3.61D-03 DEPred=-2.76D-03 R= 1.31D+00
 TightC=F SS=  1.41D+00  RLast= 2.35D-01 DXNew= 5.0454D-01 7.0505D-01
 Trust test= 1.31D+00 RLast= 2.35D-01 DXMaxT set to 5.05D-01
 ITU=  1  0
 Use linear search instead of GDIIS.
     Eigenvalues ---    0.00693   0.01703   0.01940   0.02091   0.02135
     Eigenvalues ---    0.02142   0.02206   0.02222   0.02259   0.02297
     Eigenvalues ---    0.02309   0.02839   0.02862   0.03048   0.03619
     Eigenvalues ---    0.05403   0.05690   0.06113   0.06470   0.10128
     Eigenvalues ---    0.12227   0.15980   0.15999   0.15999   0.16000
     Eigenvalues ---    0.16000   0.16000   0.16000   0.16000   0.16716
     Eigenvalues ---    0.18466   0.18923   0.21241   0.21879   0.21999
     Eigenvalues ---    0.22512   0.24008   0.31866   0.34521   0.35037
     Eigenvalues ---    0.35183   0.35264   0.35347   0.35736   0.36017
     Eigenvalues ---    0.36112   0.36149   0.36168   0.39046   0.40017
     Eigenvalues ---    0.42238   0.45669   0.45926   0.47964   0.49874
     Eigenvalues ---    0.53763   0.63252
 RFO step:  Lambda=-2.83168939D-03 EMin= 6.92727324D-03
 Quartic linear search produced a step of  0.58761.
 Iteration  1 RMS(Cart)=  0.02820632 RMS(Int)=  0.00091451
 Iteration  2 RMS(Cart)=  0.00082547 RMS(Int)=  0.00063099
 Iteration  3 RMS(Cart)=  0.00000088 RMS(Int)=  0.00063099
 Variable       Old X    -DE/DX   Delta X   Delta X   Delta X     New X
                                 (Linear)    (Quad)   (Total)
    R1        2.60622   0.00192   0.00144   0.00580   0.00724   2.61346
    R2        2.62991  -0.00115   0.00030  -0.00319  -0.00312   2.62678
    R3        2.04387  -0.00010   0.00336  -0.00080   0.00256   2.04643
    R4        2.65405  -0.00319  -0.00866  -0.01104  -0.01946   2.63459
    R5        2.04789  -0.00000   0.00391  -0.00042   0.00348   2.05137
    R6        2.65336  -0.00293  -0.00647  -0.01021  -0.01644   2.63692
    R7        2.97908   0.00223   0.00263   0.00673   0.01080   2.98988
    R8        3.48378   0.01076   0.06183   0.13313   0.19351   3.67729
    R9        2.60399   0.00206  -0.00004   0.00647   0.00642   2.61041
   R10        2.04589  -0.00009   0.00416  -0.00082   0.00334   2.04922
   R11        2.63286  -0.00080   0.00262  -0.00224   0.00014   2.63300
   R12        2.04380  -0.00007   0.00326  -0.00063   0.00263   2.04643
   R13        2.04545   0.00008   0.00367  -0.00007   0.00360   2.04905
   R14        2.84658   0.00001   0.00160  -0.00015   0.00145   2.84803
   R15        2.68397   0.00269  -0.02641   0.00513  -0.02089   2.66308
   R16        2.04534   0.00067  -0.00338   0.00330  -0.00008   2.04526
   R17        2.05543  -0.00029   0.00251  -0.00151   0.00100   2.05643
   R18        2.05736  -0.00013   0.00205  -0.00078   0.00127   2.05863
   R19        2.05988  -0.00001   0.00205  -0.00028   0.00176   2.06164
   R20        2.47768  -0.00294  -0.00325  -0.00682  -0.01007   2.46760
   R21        2.04707   0.00035  -0.00372   0.00195  -0.00178   2.04529
   R22        1.83153   0.00166   0.00063   0.00471   0.00534   1.83687
    A1        2.08800  -0.00003  -0.00458   0.00075  -0.00382   2.08418
    A2        2.09440   0.00008   0.00171   0.00025   0.00196   2.09637
    A3        2.10077  -0.00004   0.00286  -0.00100   0.00186   2.10263
    A4        2.09765  -0.00019  -0.00145  -0.00348  -0.00445   2.09319
    A5        2.10467   0.00029   0.00570   0.00290   0.00834   2.11301
    A6        2.08086  -0.00009  -0.00418   0.00056  -0.00388   2.07697
    A7        2.08756   0.00117   0.00827   0.00802   0.01532   2.10288
    A8        2.07367  -0.00063   0.00231  -0.00079  -0.00016   2.07351
    A9        1.97858  -0.00034  -0.00943  -0.01041  -0.01983   1.95874
   A10        2.09999  -0.00018  -0.00265   0.00498  -0.00018   2.09981
   A11        1.98816  -0.00060  -0.00267  -0.01486  -0.01713   1.97102
   A12        2.09254  -0.00045  -0.00321  -0.00476  -0.00749   2.08506
   A13        2.09307   0.00039   0.00333   0.00373   0.00681   2.09988
   A14        2.09751   0.00006  -0.00015   0.00109   0.00069   2.09819
   A15        2.09354   0.00003  -0.00317   0.00132  -0.00184   2.09170
   A16        2.09082   0.00020   0.00098   0.00142   0.00240   2.09322
   A17        2.09880  -0.00022   0.00218  -0.00274  -0.00056   2.09824
   A18        2.10674  -0.00052   0.00401  -0.00214   0.00163   2.10837
   A19        2.08828   0.00031  -0.00180   0.00151  -0.00018   2.08810
   A20        2.08811   0.00021  -0.00222   0.00065  -0.00147   2.08665
   A21        2.04595  -0.00142  -0.00927  -0.00604  -0.01596   2.02999
   A22        1.87943  -0.00137  -0.01964  -0.02188  -0.04171   1.83772
   A23        2.10617  -0.00166   0.00072  -0.00543  -0.00503   2.10114
   A24        2.01014   0.00175   0.01590   0.00036   0.01552   2.02566
   A25        1.98490  -0.00064  -0.02106  -0.00970  -0.03033   1.95457
   A26        1.96305  -0.00037   0.00575  -0.00550   0.00022   1.96327
   A27        1.92492  -0.00052  -0.00424  -0.00524  -0.00949   1.91542
   A28        1.88387   0.00059  -0.00370   0.00812   0.00441   1.88828
   A29        1.90722   0.00019  -0.00430  -0.00114  -0.00548   1.90174
   A30        1.89032  -0.00002   0.00256   0.00095   0.00351   1.89383
   A31        1.89280   0.00015   0.00412   0.00336   0.00748   1.90028
   A32        2.01731   0.00070   0.00328  -0.00627  -0.00226   2.01505
   A33        1.82459  -0.00002  -0.00843  -0.01962  -0.02675   1.79784
   A34        2.09742   0.00130  -0.00691   0.01290   0.00484   2.10226
   A35        2.11024   0.00005   0.01466   0.01214   0.02418   2.13442
   A36        2.06467  -0.00104  -0.00370  -0.01325  -0.01909   2.04558
   A37        1.93195   0.00240  -0.04268   0.02855  -0.01413   1.91782
    D1        0.00013  -0.00015   0.00118  -0.00944  -0.00822  -0.00809
    D2       -3.13688  -0.00012  -0.00681  -0.00391  -0.01074   3.13557
    D3        3.13774  -0.00012   0.00183  -0.00830  -0.00645   3.13129
    D4        0.00073  -0.00009  -0.00616  -0.00277  -0.00896  -0.00823
    D5       -0.01210  -0.00001  -0.00520   0.00052  -0.00469  -0.01679
    D6        3.14016  -0.00003  -0.00152  -0.00139  -0.00292   3.13724
    D7        3.13349  -0.00004  -0.00585  -0.00062  -0.00647   3.12701
    D8        0.00257  -0.00005  -0.00216  -0.00254  -0.00471  -0.00214
    D9        0.02016   0.00030   0.00452   0.01608   0.02085   0.04101
   D10       -2.89860  -0.00143  -0.02974  -0.04564  -0.07569  -2.97429
   D11        2.44412   0.00032  -0.00210  -0.01346  -0.01543   2.42870
   D12       -3.12595   0.00028   0.01250   0.01063   0.02334  -3.10261
   D13        0.23847  -0.00146  -0.02176  -0.05109  -0.07320   0.16527
   D14       -0.70199   0.00030   0.00588  -0.01891  -0.01293  -0.71493
   D15       -0.02878  -0.00025  -0.00620  -0.01357  -0.02003  -0.04880
   D16        3.10017  -0.00020  -0.01028  -0.00874  -0.01928   3.08089
   D17        2.88657   0.00145   0.02944   0.04835   0.07802   2.96459
   D18       -0.26767   0.00150   0.02536   0.05319   0.07877  -0.18890
   D19       -2.44906  -0.00038   0.00301   0.01434   0.01739  -2.43167
   D20        0.67989  -0.00033  -0.00107   0.01918   0.01814   0.69802
   D21        2.54593   0.00084   0.00819   0.00580   0.01436   2.56029
   D22        0.24618   0.00094   0.01339   0.03196   0.04450   0.29068
   D23       -0.37120  -0.00108  -0.02814  -0.05676  -0.08404  -0.45524
   D24       -2.67095  -0.00098  -0.02294  -0.03060  -0.05391  -2.72485
   D25       -2.46110  -0.00012  -0.00682   0.01440   0.00705  -2.45404
   D26       -0.15993  -0.00100  -0.01672  -0.02558  -0.04229  -0.20222
   D27        0.00483   0.00065  -0.00830  -0.00379  -0.01240  -0.00757
   D28        2.30599  -0.00024  -0.01820  -0.04377  -0.06174   2.24425
   D29        0.01706   0.00007   0.00214   0.00460   0.00675   0.02381
   D30       -3.13102   0.00009  -0.00003   0.00595   0.00593  -3.12509
   D31       -3.11186   0.00001   0.00623  -0.00026   0.00596  -3.10590
   D32        0.02325   0.00004   0.00406   0.00109   0.00514   0.02839
   D33        0.00344   0.00005   0.00352   0.00190   0.00541   0.00885
   D34        3.13436   0.00007  -0.00016   0.00382   0.00365   3.13801
   D35       -3.13164   0.00003   0.00571   0.00053   0.00623  -3.12541
   D36       -0.00072   0.00005   0.00202   0.00245   0.00447   0.00375
   D37        1.10535   0.00112   0.00615   0.00924   0.01604   1.12139
   D38       -1.02856   0.00151   0.01072   0.01834   0.02969  -0.99887
   D39       -3.09355   0.00127   0.01038   0.01243   0.02345  -3.07010
   D40       -0.44830  -0.00164  -0.03074  -0.05616  -0.08740  -0.53570
   D41       -2.58221  -0.00125  -0.02617  -0.04706  -0.07375  -2.65596
   D42        1.63599  -0.00149  -0.02652  -0.05297  -0.07999   1.55600
   D43       -2.93926  -0.00059  -0.01643  -0.02945  -0.04600  -2.98526
   D44        1.21001  -0.00020  -0.01186  -0.02035  -0.03235   1.17767
   D45       -0.85497  -0.00044  -0.01220  -0.02626  -0.03859  -0.89356
[...]
                 (A) (A) (A) (A) (A) (A) (A) (A) (A) (A) (A) (A)
                 (A) (A) (A) (A) (A) (A) (A) (A) (A) (A) (A) (A)
       Virtual   (A) (A) (A) (A) (A) (A) (A) (A) (A) (A) (A) (A)
                 (A) (A) (A) (A) (A) (A) (A) (A) (A) (A) (A) (A)
                 (A) (A) (A) (A) (A) (A) (A) (A) (A) (A) (A) (A)
                 (A) (A) (A) (A) (A) (A) (A) (A) (A) (A) (A) (A)
                 (A) (A) (A) (A) (A) (A) (A) (A) (A) (A) (A) (A)
                 (A) (A) (A) (A) (A) (A) (A) (A) (A) (A) (A) (A)
                 (A) (A) (A) (A) (A) (A) (A) (A) (A) (A) (A) (A)
                 (A) (A) (A) (A) (A) (A) (A) (A) (A) (A) (A) (A)
                 (A) (A) (A) (A) (A) (A) (A) (A) (A) (A) (A) (A)
                 (A) (A) (A) (A) (A) (A) (A) (A) (A) (A) (A) (A)
                 (A) (A) (A) (A) (A) (A) (A) (A) (A) (A) (A) (A)
                 (A) (A) (A) (A) (A) (A) (A) (A) (A) (A) (A) (A)
                 (A) (A) (A) (A) (A) (A) (A) (A) (A) (A) (A) (A)
                 (A) (A) (A) (A) (A) (A) (A) (A) (A) (A) (A) (A)
                 (A) (A) (A) (A) (A) (A) (A) (A) (A) (A) (A) (A)
                 (A) (A) (A) (A) (A) (A) (A) (A) (A) (A) (A) (A)
                 (A) (A) (A) (A) (A) (A) (A) (A) (A) (A) (A) (A)
                 (A) (A) (A) (A) (A) (A) (A) (A) (A) (A) (A) (A)
                 (A) (A) (A) (A) (A) (A) (A) (A) (A) (A) (A) (A)
                 (A) (A) (A) (A) (A) (A) (A) (A) (A) (A) (A) (A)
                 (A) (A) (A) (A) (A) (A) (A) (A) (A) (A) (A) (A)
                 (A) (A) (A) (A) (A) (A) (A) (A) (A) (A) (A) (A)
                 (A) (A) (A) (A) (A) (A) (A) (A) (A) (A) (A) (A)
                 (A) (A) (A) (A) (A) (A) (A) (A) (A) (A) (A) (A)
                 (A) (A) (A) (A) (A) (A) (A) (A) (A) (A) (A) (A)
                 (A) (A) (A) (A) (A) (A) (A) (A) (A) (A) (A) (A)
                 (A) (A) (A) (A) (A) (A) (A) (A) (A) (A) (A) (A)
                 (A) (A) (A) (A) (A) (A) (A) (A) (A) (A) (A) (A)
                 (A) (A) (A) (A)
 The electronic state is 1-A.
 Alpha  occ. eigenvalues --  -19.75651 -10.71076 -10.58179 -10.57163 -10.55089
 Alpha  occ. eigenvalues --  -10.54973 -10.54707 -10.54653 -10.54591 -10.53447
 Alpha  occ. eigenvalues --   -1.30179  -0.98734  -0.93792  -0.85295  -0.84342
 Alpha  occ. eigenvalues --   -0.81121  -0.74686  -0.69964  -0.69232  -0.67211
 Alpha  occ. eigenvalues --   -0.60710  -0.58955  -0.56550  -0.53884  -0.52678
 Alpha  occ. eigenvalues --   -0.50141  -0.49751  -0.49011  -0.46726  -0.44924
 Alpha  occ. eigenvalues --   -0.43977  -0.43584  -0.40413  -0.40219  -0.31926
 Alpha  occ. eigenvalues --   -0.31709
 Alpha virt. eigenvalues --   -0.06080   0.00940   0.02205   0.05846   0.09007
 Alpha virt. eigenvalues --    0.09699   0.10077   0.12429   0.12910   0.13450
 Alpha virt. eigenvalues --    0.14603   0.14932   0.15281   0.16925   0.17792
 Alpha virt. eigenvalues --    0.19059   0.20098   0.20889   0.22459   0.22766
 Alpha virt. eigenvalues --    0.23504   0.24366   0.24605   0.26087   0.26719
 Alpha virt. eigenvalues --    0.27103   0.28335   0.29081   0.29749   0.30979
 Alpha virt. eigenvalues --    0.32125   0.33280   0.34828   0.35369   0.36288
 Alpha virt. eigenvalues --    0.36927   0.37241   0.38275   0.39986   0.40709
 Alpha virt. eigenvalues --    0.41061   0.41622   0.43216   0.43700   0.44024
 Alpha virt. eigenvalues --    0.44528   0.45213   0.46411   0.46986   0.47521
 Alpha virt. eigenvalues --    0.48800   0.49759   0.50061   0.51329   0.52148
 Alpha virt. eigenvalues --    0.52856   0.53411   0.53904   0.55293   0.55682
 Alpha virt. eigenvalues --    0.57109   0.58651   0.60034   0.62548   0.63370
 Alpha virt. eigenvalues --    0.64054   0.65988   0.68596   0.69308   0.70284
 Alpha virt. eigenvalues --    0.73245   0.73479   0.73956   0.77055   0.77590
 Alpha virt. eigenvalues --    0.78236   0.80504   0.82351   0.83354   0.84494
 Alpha virt. eigenvalues --    0.86817   0.88286   0.90095   0.90516   0.92558
 Alpha virt. eigenvalues --    0.93656   0.94541   0.95694   0.97813   0.99206
 Alpha virt. eigenvalues --    1.01877   1.03431   1.04465   1.05855   1.06590
 Alpha virt. eigenvalues --    1.09216   1.10104   1.10745   1.13065   1.14557
 Alpha virt. eigenvalues --    1.15475   1.16419   1.20255   1.22501   1.23623
 Alpha virt. eigenvalues --    1.24360   1.26532   1.27070   1.27604   1.29266
 Alpha virt. eigenvalues --    1.30790   1.32231   1.34576   1.36057   1.37020
 Alpha virt. eigenvalues --    1.41299   1.42638   1.45573   1.48651   1.49502
 Alpha virt. eigenvalues --    1.49990   1.50678   1.51876   1.54177   1.54537
 Alpha virt. eigenvalues --    1.57533   1.58652   1.58929   1.61478   1.62565
 Alpha virt. eigenvalues --    1.62853   1.63782   1.65590   1.66769   1.68571
 Alpha virt. eigenvalues --    1.68962   1.71322   1.72992   1.74219   1.74287
 Alpha virt. eigenvalues --    1.75226   1.76989   1.79565   1.79920   1.82970
 Alpha virt. eigenvalues --    1.84921   1.87249   1.88286   1.90510   1.91592
 Alpha virt. eigenvalues --    1.93508   1.95272   2.00447   2.01697   2.04039
 Alpha virt. eigenvalues --    2.04464   2.05232   2.09587   2.10301   2.11782
 Alpha virt. eigenvalues --    2.12550   2.17056   2.17461   2.18731   2.19514
 Alpha virt. eigenvalues --    2.21482   2.23137   2.25282   2.26179   2.27497
 Alpha virt. eigenvalues --    2.28521   2.30576   2.32101   2.35401   2.36271
 Alpha virt. eigenvalues --    2.40153   2.41597   2.42981   2.44867   2.47409
 Alpha virt. eigenvalues --    2.51875   2.52603   2.54891   2.55580   2.56948
 Alpha virt. eigenvalues --    2.58318   2.60489   2.60812   2.62160   2.63603
 Alpha virt. eigenvalues --    2.65016   2.65884   2.67413   2.67637   2.69141
 Alpha virt. eigenvalues --    2.69903   2.70897   2.71569   2.72745   2.73322
 Alpha virt. eigenvalues --    2.75087   2.77406   2.77892   2.79134   2.79851
 Alpha virt. eigenvalues --    2.83071   2.83310   2.84276   2.85830   2.86722
 Alpha virt. eigenvalues --    2.87895   2.88556   2.91340   2.92285   2.93038
 Alpha virt. eigenvalues --    2.97783   2.98679   3.00292   3.01701   3.02824
 Alpha virt. eigenvalues --    3.04891   3.05622   3.10281   3.11001   3.11356
 Alpha virt. eigenvalues --    3.12339   3.13395   3.14464   3.15514   3.16100
 Alpha virt. eigenvalues --    3.16930   3.18719   3.19367   3.21887   3.22381
 Alpha virt. eigenvalues --    3.23655   3.25064   3.25196   3.29214   3.29410
 Alpha virt. eigenvalues --    3.30991   3.32132   3.34310   3.35491   3.36351
 Alpha virt. eigenvalues --    3.38132   3.39425   3.40611   3.42568   3.43735
 Alpha virt. eigenvalues --    3.45009   3.46137   3.47400   3.48812   3.51512
 Alpha virt. eigenvalues --    3.52925   3.54335   3.55122   3.56630   3.57649
 Alpha virt. eigenvalues --    3.58569   3.61450   3.63222   3.66463   3.67796
 Alpha virt. eigenvalues --    3.69535   3.71861   3.74398   3.75817   3.80197
 Alpha virt. eigenvalues --    3.82677   3.86409   3.88067   3.90274   3.93451
 Alpha virt. eigenvalues --    3.94859   3.97746   4.01616   4.02690   4.03976
 Alpha virt. eigenvalues --    4.04901   4.08354   4.12387   4.13673   4.16281
 Alpha virt. eigenvalues --    4.17069   4.17675   4.19429   4.20499   4.23544
 Alpha virt. eigenvalues --    4.25651   4.29346   4.30441   4.30771   4.39093
 Alpha virt. eigenvalues --    4.39933   4.44528   4.46224   4.53142   4.53912
 Alpha virt. eigenvalues --    4.61236   4.62098   4.63177   4.65161   4.68571
 Alpha virt. eigenvalues --    4.70610   4.79819   4.84373   4.84908   4.88373
 Alpha virt. eigenvalues --    4.91571   5.04735   5.16769   5.18464   5.20856
 Alpha virt. eigenvalues --    5.30614   5.33669   5.37872   5.42432   5.48038
 Alpha virt. eigenvalues --    5.58523   5.87242   5.89745   6.17184   6.28390
 Alpha virt. eigenvalues --    6.33812   6.59848   6.68617   6.92032   7.16326
 Alpha virt. eigenvalues --   22.18183  22.52050  22.66766  22.71739  22.77999
 Alpha virt. eigenvalues --   22.84121  22.89345  22.95873  23.31664  43.95006
          Condensed to atoms (all electrons):
               1          2          3          4          5          6
     1  C    4.966086   0.499333  -0.067323  -0.048927  -0.051936   0.491815
     2  C    0.499333   5.015652   0.482533  -0.032170  -0.035927  -0.047204
     3  C   -0.067323   0.482533   5.147823   0.415024  -0.061440  -0.040866
     4  C   -0.048927  -0.032170   0.415024   5.112700   0.479426  -0.037301
     5  C   -0.051936  -0.035927  -0.061440   0.479426   4.973165   0.488400
     6  C    0.491815  -0.047204  -0.040866  -0.037301   0.488400   4.967276
     7  C    0.011378  -0.053842   0.153989  -0.033928   0.008006  -0.002507
     8  C   -0.000456  -0.001337  -0.022025  -0.017978   0.003012  -0.000412
     9  C    0.000189  -0.006016   0.045579  -0.022678   0.001582  -0.000863
    10  O   -0.000017   0.000425  -0.003973  -0.000502  -0.000560   0.000046
    11  H    0.423104  -0.037744   0.006757  -0.001210   0.004886  -0.033452
    12  H   -0.032800   0.415052  -0.030913   0.008898  -0.002153   0.004884
    13  H   -0.000916   0.003725  -0.043401   0.405828  -0.016426   0.003415
    14  H    0.000130   0.001779  -0.060526   0.008949  -0.000657   0.000380
    15  H   -0.000028   0.000685  -0.032922   0.006029   0.000803   0.000085
    16  H   -0.000132   0.001872   0.011466  -0.005215  -0.000069  -0.000076
    17  H   -0.032170   0.003473   0.000088   0.004296  -0.032028   0.418036
    18  H    0.003658  -0.000252   0.004991  -0.032546   0.418219  -0.030974
    19  H    0.000034  -0.001383   0.009070   0.000611  -0.000169  -0.000070
    20  H    0.000012  -0.000699   0.013242   0.001066  -0.000064   0.000007
    21  H   -0.000004   0.000053  -0.000584  -0.000068   0.000015   0.000003
               7          8          9         10         11         12
     1  C    0.011378  -0.000456   0.000189  -0.000017   0.423104  -0.032800
     2  C   -0.053842  -0.001337  -0.006016   0.000425  -0.037744   0.415052
     3  C    0.153989  -0.022025   0.045579  -0.003973   0.006757  -0.030913
     4  C   -0.033928  -0.017978  -0.022678  -0.000502  -0.001210   0.008898
     5  C    0.008006   0.003012   0.001582  -0.000560   0.004886  -0.002153
     6  C   -0.002507  -0.000412  -0.000863   0.000046  -0.033452   0.004884
     7  C    5.321544   0.250585   0.262696  -0.066145  -0.000238  -0.005992
     8  C    0.250585   5.074967  -0.040946   0.004739   0.000012   0.000585
     9  C    0.262696  -0.040946   4.692268   0.420423   0.000017  -0.001047
    10  O   -0.066145   0.004739   0.420423   7.605235  -0.000000   0.000002
    11  H   -0.000238   0.000012   0.000017  -0.000000   0.456928  -0.003227
    12  H   -0.005992   0.000585  -0.001047   0.000002  -0.003227   0.453543
    13  H    0.011448  -0.006660  -0.002876   0.002582   0.000039  -0.000105
    14  H    0.454603  -0.024858  -0.044803   0.001753  -0.000060   0.001146
    15  H    0.024003   0.391084  -0.020351   0.001133  -0.000001  -0.000065
    16  H   -0.061988   0.425352   0.010077   0.000036   0.000003   0.000194
    17  H    0.000020  -0.000001   0.000006   0.000000  -0.003482  -0.000143
    18  H   -0.000099   0.000022  -0.000011   0.000000  -0.000159   0.000042
    19  H   -0.054359   0.005102   0.426311  -0.034313   0.000000   0.000142
    20  H   -0.055256   0.421898   0.000591   0.000657  -0.000000  -0.000005
    21  H    0.008981  -0.001101  -0.023230   0.298694   0.000000   0.000001
              13         14         15         16         17         18
     1  C   -0.000916   0.000130  -0.000028  -0.000132  -0.032170   0.003658
     2  C    0.003725   0.001779   0.000685   0.001872   0.003473  -0.000252
     3  C   -0.043401  -0.060526  -0.032922   0.011466   0.000088   0.004991
     4  C    0.405828   0.008949   0.006029  -0.005215   0.004296  -0.032546
     5  C   -0.016426  -0.000657   0.000803  -0.000069  -0.032028   0.418219
     6  C    0.003415   0.000380   0.000085  -0.000076   0.418036  -0.030974
     7  C    0.011448   0.454603   0.024003  -0.061988   0.000020  -0.000099
     8  C   -0.006660  -0.024858   0.391084   0.425352  -0.000001   0.000022
     9  C   -0.002876  -0.044803  -0.020351   0.010077   0.000006  -0.000011
    10  O    0.002582   0.001753   0.001133   0.000036   0.000000   0.000000
    11  H    0.000039  -0.000060  -0.000001   0.000003  -0.003482  -0.000159
    12  H   -0.000105   0.001146  -0.000065   0.000194  -0.000143   0.000042
    13  H    0.430807   0.000298  -0.000478   0.000320  -0.000162  -0.002786
    14  H    0.000298   0.450799   0.005216  -0.005841  -0.000001   0.000002
    15  H   -0.000478   0.005216   0.492432  -0.020614  -0.000000  -0.000004
    16  H    0.000320  -0.005841  -0.020614   0.480264  -0.000001   0.000009
    17  H   -0.000162  -0.000001  -0.000000  -0.000001   0.457169  -0.003255
    18  H   -0.002786   0.000002  -0.000004   0.000009  -0.003255   0.454744
    19  H    0.000464  -0.001052  -0.000352  -0.000043  -0.000001  -0.000000
    20  H    0.000016  -0.004265  -0.024862  -0.017438   0.000000  -0.000002
    21  H   -0.000124  -0.000319  -0.000053   0.000014  -0.000000   0.000001
              19         20         21
     1  C    0.000034   0.000012  -0.000004
     2  C   -0.001383  -0.000699   0.000053
     3  C    0.009070   0.013242  -0.000584
     4  C    0.000611   0.001066  -0.000068
     5  C   -0.000169  -0.000064   0.000015
     6  C   -0.000070   0.000007   0.000003
     7  C   -0.054359  -0.055256   0.008981
     8  C    0.005102   0.421898  -0.001101
     9  C    0.426311   0.000591  -0.023230
    10  O   -0.034313   0.000657   0.298694
    11  H    0.000000  -0.000000   0.000000
    12  H    0.000142  -0.000005   0.000001
    13  H    0.000464   0.000016  -0.000124
    14  H   -0.001052  -0.004265  -0.000319
    15  H   -0.000352  -0.024862  -0.000053
    16  H   -0.000043  -0.017438   0.000014
    17  H   -0.000001   0.000000  -0.000000
    18  H   -0.000000  -0.000002   0.000001
    19  H    0.417670   0.000037  -0.008298
    20  H    0.000037   0.482454  -0.000030
    21  H   -0.008298  -0.000030   0.273766
 Mulliken charges:
               1
     1  C   -0.161030
     2  C   -0.208008
     3  C    0.073411
     4  C   -0.210304
     5  C   -0.176086
     6  C   -0.180623
     7  C   -0.172900
     8  C   -0.461584
     9  C    0.303081
    10  O   -0.230214
    11  H    0.187827
    12  H    0.191960
    13  H    0.214989
    14  H    0.217328
    15  H    0.178262
    16  H    0.181810
    17  H    0.188156
    18  H    0.188402
    19  H    0.240598
    20  H    0.182641
    21  H    0.452282
 Sum of Mulliken charges =   1.00000
 Mulliken charges with hydrogens summed into heavy atoms:
               1
     1  C    0.026798
     2  C   -0.016047
     3  C    0.073411
     4  C    0.004685
     5  C    0.012316
     6  C    0.007533
     7  C    0.044428
     8  C    0.081129
     9  C    0.543679
    10  O    0.222069
 Electronic spatial extent (au):  <R**2>=           1531.7471
 Charge=              1.0000 electrons
 Dipole moment (field-independent basis, Debye):
    X=              8.3294    Y=              0.8240    Z=              5.2171  Tot=              9.8629
 Quadrupole moment (field-independent basis, Debye-Ang):
   XX=            -28.3426   YY=            -46.7151   ZZ=            -49.8485
   XY=              4.2645   XZ=             11.9537   YZ=              1.2529
 Traceless Quadrupole moment (field-independent basis, Debye-Ang):
   XX=             13.2928   YY=             -5.0797   ZZ=             -8.2131
   XY=              4.2645   XZ=             11.9537   YZ=              1.2529
 Octapole moment (field-independent basis, Debye-Ang**2):
  XXX=             54.3390  YYY=              7.2793  ZZZ=             22.2006  XYY=             14.6234
  XXY=             20.3262  XXZ=             40.6743  XZZ=             38.8791  YZZ=              6.6023
  YYZ=              8.0063  XYZ=             18.0151
 Hexadecapole moment (field-independent basis, Debye-Ang**3):
 XXXX=          -1086.5131 YYYY=           -322.1228 ZZZZ=           -233.1912 XXXY=             66.9300
 XXXZ=            101.1632 YYYX=             25.7133 YYYZ=             -2.3394 ZZZX=             56.2277
 ZZZY=             19.3887 XXYY=           -228.2583 XXZZ=           -221.9929 YYZZ=            -91.3144
 XXYZ=             31.3296 YYXZ=             25.1153 ZZXY=             27.2416
 N-N= 5.030374218882D+02 E-N=-1.980121922598D+03  KE= 4.224239259681D+02
 Unable to Open any file for archive entry.
 1\1\GINC-BIO3-HORSEA-12U\FOpt\RM062X\def2TZVP\C9H11O1(1+)\VIP13T32\07-
 Apr-2023\0\\# opt m062x/def2tzvp scrf=(smd,solvent=water)\\Title Card 
 Required\\1,1\C,15.9089380473,23.3248225442,70.9755009368\C,17.1032747
 268,23.9167313014,71.3609018066\C,17.6385949421,23.6484343691,72.61678
 49707\C,16.98844126,22.7628591571,73.472948904\C,15.7955281005,22.1696
 959651,73.0827800628\C,15.2536558927,22.4519058702,71.8355844488\C,18.
 9445943653,24.3193998892,73.061844443\C,18.8467976957,25.0957302732,74
 .364474388\C,19.888033143,23.2021257097,73.092684469\O,20.3721763877,2
 2.8063545095,74.1809148432\H,15.489429153,23.5468245699,70.002793038\H
 ,17.6163209019,24.5983028483,70.6936034511\H,17.4103706542,22.53933052
 42,74.4462818602\H,19.2738156708,24.9547835856,72.2336458154\H,18.5171
 935318,24.4560919118,75.1819937811\H,18.1271053317,25.9028865682,74.24
 14514223\H,14.322650258,21.9905534359,71.532513294\H,15.2918777515,21.
 4851583552,73.7528538406\H,20.1522708512,22.670713838,72.1794699933\H,
 19.8146064453,25.5232652926,74.6250895671\H,20.9564523795,22.025386881
 5,74.091647704\\Version=ES64L-G16RevC.01\State=1-A\HF=-424.58584\RMSD=
 4.971e-09\RMSF=6.862e-06\Dipole=3.7857532,-0.7944254,0.3066702\Quadrup
 ole=12.572691,-6.1880813,-6.3846097,-3.1935072,4.6614696,-3.7445708\PG
 =C01 [X(C9H11O1)]\\@
 The archive entry for this job was punched.


 "THE ACADEMIC HIERARCHY"


 THE PRESIDENT:
   LEAPS TALL BUILDINGS IN A SINGLE BOUND,
     IS MORE POWERFUL THAN A LOCOMOTIVE,
       IS FASTER THAN A SPEEDING BULLET,
         WALKS ON WATER,
           GIVES POLICY TO GOD.

 THE VICE PRESIDENT FOR ACADEMIC AFFAIRS:
   LEAPS SHORT BUILDINGS IN A SINGLE BOUND,
     IS MORE POWERFUL THAN A SWITCH ENGINE,
       IS JUST AS FAST AS A SPEEDING BULLET,
         WALKS ON WATER IF SEA IS CALM,
           TALKS WITH GOD.

 PROFESSOR:
   LEAPS SHORT BUILDINGS WITH A RUNNING START AND FAVORABLE WINDS,
     IS ALMOST AS POWERFUL AS A SWITCH ENGINE,
       CAN FIRE A SPEEDING BULLET,
         WALKS ON WATER IN AN INDOOR SWIMMING POOL,
          TALKS WITH GOD IF SPECIAL REQUEST IS APPROVED.

 ASSOCIATE PROFESSOR:
   BARELY CLEARS A QUONSET HUT,
     LOSES TUG OF WAR WITH LOCOMOTIVE,
       MISFIRES FREQUENTLY,
         SWIMS WELL,
           IS OCCASIONALLY ADDRESSED BY GOD.

 ASSISTANT PROFESSOR:
   MAKES HIGH MARKS ON WALLS WHEN TRYING TO LEAP TALL BUILDINGS,
     IS RUN OVER BY LOCOMOTIVES,
       CAN SOMETIMES HANDLE A GUN WITHOUT INFLICTING SELF INJURY,
         DOG PADDLES,
           TALKS TO ANIMALS.

 GRADUATE STUDENT:
   RUNS INTO BUILDINGS,
     RECOGNIZES LOCOMOTIVES TWO OUT OF THREE TIMES,
       IS NOT ISSUED AMMUNITION,
         CAN STAY AFLOAT WITH A LIFE JACKET,
           TALKS TO WALLS.

 UNDERGRADUATE AND WORK STUDY STUDENT:
   FALLS OVER DOORSTEP WHEN TRYING TO ENTER BUILDINGS,
     SAYS, "LOOK AT THE CHOO-CHOO,"
       WETS HIMSELF WITH A WATER PISTOL,
        PLAYS IN MUD PUDDLES,
          MUMBLES TO HIMSELF.

 DEPARTMENT SECRETARY:
   LIFTS TALL BUILDINGS AND WALKS UNDER THEM,
     KICKS LOCOMOTIVES OFF THE TRACKS,
       CATCHES SPEEDING BULLETS IN HER TEETH AND EATS THEM,
         FREEZES WATER WITH A SINGLE GLANCE,
           IS GOD.
 Job cpu time:       0 days 14 hours 47 minutes 16.6 seconds.
 Elapsed time:       0 days  0 hours 58 minutes 38.9 seconds.
 File lengths (MBytes):  RWF=    160 Int=      0 D2E=      0 Chk=     14 Scr=      1
 Normal termination of Gaussian 16 at Fri Apr  7 23:33:19 2023.
