 Entering Gaussian System, Link 0=g16
 Input=rpp-water.gjf
 Output=rpp-water.log
 Initial command:
 /home/data/vip13t32/docs/gaussian/gaussian/g16/l1.exe "/home/data/vip13t32/Rtmp/Gau-2592706.inp" -scrdir="/home/data/vip13t32/Rtmp/"
 Entering Link 1 = /home/data/vip13t32/docs/gaussian/gaussian/g16/l1.exe PID=   2592708.
  
 Copyright (c) 1988-2019, Gaussian, Inc.  All Rights Reserved.
  
 This is part of the Gaussian(R) 16 program.  It is based on
 the Gaussian(R) 09 system (copyright 2009, Gaussian, Inc.),
 the Gaussian(R) 03 system (copyright 2003, Gaussian, Inc.),
 the Gaussian(R) 98 system (copyright 1998, Gaussian, Inc.),
 the Gaussian(R) 94 system (copyright 1995, Gaussian, Inc.),
 the Gaussian 92(TM) system (copyright 1992, Gaussian, Inc.),
 the Gaussian 90(TM) system (copyright 1990, Gaussian, Inc.),
 the Gaussian 88(TM) system (copyright 1988, Gaussian, Inc.),
 the Gaussian 86(TM) system (copyright 1986, Carnegie Mellon
 University), and the Gaussian 82(TM) system (copyright 1983,
 Carnegie Mellon University). Gaussian is a federally registered
 trademark of Gaussian, Inc.
  
 This software contains proprietary and confidential information,
 including trade secrets, belonging to Gaussian, Inc.
  
 This software is provided under written license and may be
 used, copied, transmitted, or stored only in accord with that
 written license.
  
 The following legend is applicable only to US Government
 contracts under FAR:
  
                    RESTRICTED RIGHTS LEGEND
  
 Use, reproduction and disclosure by the US Government is
 subject to restrictions as set forth in subparagraphs (a)
 and (c) of the Commercial Computer Software - Restricted
 Rights clause in FAR 52.227-19.
  
 Gaussian, Inc.
 340 Quinnipiac St., Bldg. 40, Wallingford CT 06492
  
  
 ---------------------------------------------------------------
 Warning -- This program may not be used in any manner that
 competes with the business of Gaussian, Inc. or will provide
 assistance to any competitor of Gaussian, Inc.  The licensee
 of this program is prohibited from giving any competitor of
 Gaussian, Inc. access to this program.  By using this program,
 the user acknowledges that Gaussian, Inc. is engaged in the
 business of creating and licensing software in the field of
 computational chemistry and represents and warrants to the
 licensee that it is not a competitor of Gaussian, Inc. and that
 it will not use this program in any manner prohibited above.
 ---------------------------------------------------------------
  

 Cite this work as:
 Gaussian 16, Revision C.01,
 M. J. Frisch, G. W. Trucks, H. B. Schlegel, G. E. Scuseria, 
 M. A. Robb, J. R. Cheeseman, G. Scalmani, V. Barone, 
 G. A. Petersson, H. Nakatsuji, X. Li, M. Caricato, A. V. Marenich, 
 J. Bloino, B. G. Janesko, R. Gomperts, B. Mennucci, H. P. Hratchian, 
 J. V. Ortiz, A. F. Izmaylov, J. L. Sonnenberg, D. Williams-Young, 
 F. Ding, F. Lipparini, F. Egidi, J. Goings, B. Peng, A. Petrone, 
 T. Henderson, D. Ranasinghe, V. G. Zakrzewski, J. Gao, N. Rega, 
 G. Zheng, W. Liang, M. Hada, M. Ehara, K. Toyota, R. Fukuda, 
 J. Hasegawa, M. Ishida, T. Nakajima, Y. Honda, O. Kitao, H. Nakai, 
 T. Vreven, K. Throssell, J. A. Montgomery, Jr., J. E. Peralta, 
 F. Ogliaro, M. J. Bearpark, J. J. Heyd, E. N. Brothers, K. N. Kudin, 
 V. N. Staroverov, T. A. Keith, R. Kobayashi, J. Normand, 
 K. Raghavachari, A. P. Rendell, J. C. Burant, S. S. Iyengar, 
 J. Tomasi, M. Cossi, J. M. Millam, M. Klene, C. Adamo, R. Cammi, 
 J. W. Ochterski, R. L. Martin, K. Morokuma, O. Farkas, 
 J. B. Foresman, and D. J. Fox, Gaussian, Inc., Wallingford CT, 2019.
 
 ******************************************
 Gaussian 16:  ES64L-G16RevC.01  3-Jul-2019
                 1-Apr-2023 
 ******************************************
 %mem=40GB
 %chk=/home/data/vip13t32/docs/g16out/mol_for_md/RPP/RPP_Gaussian/water.chk
 %nprocshared=20
 Will use up to   20 processors via shared memory.
 ---------------------------------------------
 # opt m062x/def2tzvp scrf=(smd,solvent=water)
 ---------------------------------------------
 1/18=20,19=15,26=3,38=1/1,3;
 2/9=110,12=2,17=6,18=5,40=1/2;
 3/5=44,7=101,11=2,25=1,30=1,70=32201,71=1,72=1,74=-55/1,2,3;
 4//1;
 5/5=2,38=5,53=1/2;
 6/7=2,8=2,9=2,10=2,28=1/1;
 7//1,2,3,16;
 1/18=20,19=15,26=3/3(2);
 2/9=110/2;
 99//99;
 2/9=110/2;
 3/5=44,7=101,11=2,25=1,30=1,70=32205,71=1,72=1,74=-55/1,2,3;
 4/5=5,16=3,69=1/1;
 5/5=2,38=5,53=1/2;
 7//1,2,3,16;
 1/18=20,19=15,26=3/3(-5);
 2/9=110/2;
 6/7=2,8=2,9=2,10=2,19=2,28=1/1;
 99/9=1/99;
 -------------------
 Title Card Required
 -------------------
 Symbolic Z-matrix:
 Charge =  0 Multiplicity = 1
 C                     1.64592   13.3973   100.76082 
 C                     1.55126   12.2218   100.03812 
 C                     0.99816   12.22074   98.76271 
 C                     0.54122   13.41601   98.22508 
 C                     0.63881   14.59317   98.94673 
 C                     1.19027   14.58616   100.21612 
 H                     2.07519   13.38547   101.75178 
 H                     1.90725   11.29508   100.4653 
 H                     0.10821   13.42772   97.23472 
 C                     0.9226    10.9317   97.97943 
 H                     0.23936   11.07584   97.13267 
 C                     2.29676   10.50907   97.45934 
 H                     2.21817   9.56446   96.92699 
 H                     2.9867    10.37706   98.28875 
 H                     1.2639    15.50402   100.78014 
 H                     0.28111   15.51716   98.51684 
 C                     0.30416   9.86074   98.84438 
 H                    -0.65698   10.17697   99.29916 
 H                     2.69629   11.26567   96.78874 
 O                     0.76165   8.77385   99.05219 
 

 GradGradGradGradGradGradGradGradGradGradGradGradGradGradGradGradGradGrad
 Berny optimization.
 Initialization pass.
                           ----------------------------
                           !    Initial Parameters    !
                           ! (Angstroms and Degrees)  !
 --------------------------                            --------------------------
 ! Name  Definition              Value          Derivative Info.                !
 --------------------------------------------------------------------------------
 ! R1    R(1,2)                  1.3831         estimate D2E/DX2                !
 ! R2    R(1,6)                  1.3848         estimate D2E/DX2                !
 ! R3    R(1,7)                  1.08           estimate D2E/DX2                !
 ! R4    R(2,3)                  1.3902         estimate D2E/DX2                !
 ! R5    R(2,8)                  1.0807         estimate D2E/DX2                !
 ! R6    R(3,4)                  1.388          estimate D2E/DX2                !
 ! R7    R(3,10)                 1.5103         estimate D2E/DX2                !
 ! R8    R(4,5)                  1.3842         estimate D2E/DX2                !
 ! R9    R(4,9)                  1.0809         estimate D2E/DX2                !
 ! R10   R(5,6)                  1.384          estimate D2E/DX2                !
 ! R11   R(5,16)                 1.08           estimate D2E/DX2                !
 ! R12   R(6,15)                 1.0798         estimate D2E/DX2                !
 ! R13   R(10,11)                1.0975         estimate D2E/DX2                !
 ! R14   R(10,12)                1.5289         estimate D2E/DX2                !
 ! R15   R(10,17)                1.5092         estimate D2E/DX2                !
 ! R16   R(12,13)                1.0871         estimate D2E/DX2                !
 ! R17   R(12,14)                1.0869         estimate D2E/DX2                !
 ! R18   R(12,19)                1.0871         estimate D2E/DX2                !
 ! R19   R(17,18)                1.1093         estimate D2E/DX2                !
 ! R20   R(17,20)                1.1974         estimate D2E/DX2                !
 ! A1    A(2,1,6)              120.1045         estimate D2E/DX2                !
 ! A2    A(2,1,7)              119.8228         estimate D2E/DX2                !
 ! A3    A(6,1,7)              120.0726         estimate D2E/DX2                !
 ! A4    A(1,2,3)              120.481          estimate D2E/DX2                !
 ! A5    A(1,2,8)              119.9794         estimate D2E/DX2                !
 ! A6    A(3,2,8)              119.5396         estimate D2E/DX2                !
 ! A7    A(2,3,4)              119.0578         estimate D2E/DX2                !
 ! A8    A(2,3,10)             119.761          estimate D2E/DX2                !
 ! A9    A(4,3,10)             121.1748         estimate D2E/DX2                !
 ! A10   A(3,4,5)              120.4772         estimate D2E/DX2                !
 ! A11   A(3,4,9)              119.7416         estimate D2E/DX2                !
 ! A12   A(5,4,9)              119.7811         estimate D2E/DX2                !
 ! A13   A(4,5,6)              120.129          estimate D2E/DX2                !
 ! A14   A(4,5,16)             119.7806         estimate D2E/DX2                !
 ! A15   A(6,5,16)             120.0903         estimate D2E/DX2                !
 ! A16   A(1,6,5)              119.7502         estimate D2E/DX2                !
 ! A17   A(1,6,15)             120.122          estimate D2E/DX2                !
 ! A18   A(5,6,15)             120.1277         estimate D2E/DX2                !
 ! A19   A(3,10,11)            108.6138         estimate D2E/DX2                !
 ! A20   A(3,10,12)            111.5561         estimate D2E/DX2                !
 ! A21   A(3,10,17)            109.2051         estimate D2E/DX2                !
 ! A22   A(11,10,12)           109.4738         estimate D2E/DX2                !
 ! A23   A(11,10,17)           106.2764         estimate D2E/DX2                !
 ! A24   A(12,10,17)           111.5382         estimate D2E/DX2                !
 ! A25   A(10,12,13)           109.9869         estimate D2E/DX2                !
 ! A26   A(10,12,14)           110.153          estimate D2E/DX2                !
 ! A27   A(10,12,19)           110.3516         estimate D2E/DX2                !
 ! A28   A(13,12,14)           108.3023         estimate D2E/DX2                !
 ! A29   A(13,12,19)           109.2224         estimate D2E/DX2                !
 ! A30   A(14,12,19)           108.7819         estimate D2E/DX2                !
 ! A31   A(10,17,18)           112.8125         estimate D2E/DX2                !
 ! A32   A(10,17,20)           125.947          estimate D2E/DX2                !
 ! A33   A(18,17,20)           121.2402         estimate D2E/DX2                !
 ! D1    D(6,1,2,3)             -0.0869         estimate D2E/DX2                !
 ! D2    D(6,1,2,8)           -179.9823         estimate D2E/DX2                !
 ! D3    D(7,1,2,3)            179.8425         estimate D2E/DX2                !
 ! D4    D(7,1,2,8)             -0.0529         estimate D2E/DX2                !
 ! D5    D(2,1,6,5)              0.0632         estimate D2E/DX2                !
 ! D6    D(2,1,6,15)           179.9913         estimate D2E/DX2                !
 ! D7    D(7,1,6,5)           -179.8661         estimate D2E/DX2                !
 ! D8    D(7,1,6,15)             0.062          estimate D2E/DX2                !
 ! D9    D(1,2,3,4)             -0.0489         estimate D2E/DX2                !
 ! D10   D(1,2,3,10)           179.0419         estimate D2E/DX2                !
 ! D11   D(8,2,3,4)            179.8469         estimate D2E/DX2                !
 ! D12   D(8,2,3,10)            -1.0623         estimate D2E/DX2                !
 ! D13   D(2,3,4,5)              0.2095         estimate D2E/DX2                !
 ! D14   D(2,3,4,9)           -179.9354         estimate D2E/DX2                !
 ! D15   D(10,3,4,5)          -178.868          estimate D2E/DX2                !
 ! D16   D(10,3,4,9)             0.9871         estimate D2E/DX2                !
 ! D17   D(2,3,10,11)          165.63           estimate D2E/DX2                !
 ! D18   D(2,3,10,12)          -73.6207         estimate D2E/DX2                !
 ! D19   D(2,3,10,17)           50.1312         estimate D2E/DX2                !
 ! D20   D(4,3,10,11)          -15.2989         estimate D2E/DX2                !
 ! D21   D(4,3,10,12)          105.4504         estimate D2E/DX2                !
 ! D22   D(4,3,10,17)         -130.7977         estimate D2E/DX2                !
 ! D23   D(3,4,5,6)             -0.2349         estimate D2E/DX2                !
 ! D24   D(3,4,5,16)           179.9013         estimate D2E/DX2                !
 ! D25   D(9,4,5,6)            179.9101         estimate D2E/DX2                !
 ! D26   D(9,4,5,16)             0.0463         estimate D2E/DX2                !
 ! D27   D(4,5,6,1)              0.0968         estimate D2E/DX2                !
 ! D28   D(4,5,6,15)          -179.8313         estimate D2E/DX2                !
 ! D29   D(16,5,6,1)           179.9602         estimate D2E/DX2                !
 ! D30   D(16,5,6,15)            0.0321         estimate D2E/DX2                !
 ! D31   D(3,10,12,13)         178.2447         estimate D2E/DX2                !
 ! D32   D(3,10,12,14)          58.9415         estimate D2E/DX2                !
 ! D33   D(3,10,12,19)         -61.1863         estimate D2E/DX2                !
 ! D34   D(11,10,12,13)        -61.51           estimate D2E/DX2                !
 ! D35   D(11,10,12,14)        179.1868         estimate D2E/DX2                !
 ! D36   D(11,10,12,19)         59.0591         estimate D2E/DX2                !
 ! D37   D(17,10,12,13)         55.8225         estimate D2E/DX2                !
 ! D38   D(17,10,12,14)        -63.4807         estimate D2E/DX2                !
 ! D39   D(17,10,12,19)        176.3916         estimate D2E/DX2                !
 ! D40   D(3,10,17,18)          51.6476         estimate D2E/DX2                !
 ! D41   D(3,10,17,20)        -128.174          estimate D2E/DX2                !
 ! D42   D(11,10,17,18)        -65.3412         estimate D2E/DX2                !
 ! D43   D(11,10,17,20)        114.8372         estimate D2E/DX2                !
 ! D44   D(12,10,17,18)        175.4101         estimate D2E/DX2                !
 ! D45   D(12,10,17,20)         -4.4115         estimate D2E/DX2                !
 --------------------------------------------------------------------------------
 Trust Radius=3.00D-01 FncErr=1.00D-07 GrdErr=1.00D-06 EigMax=2.50D+02 EigMin=1.00D-04
 Number of steps in this run=    108 maximum allowed number of steps=    120.
 GradGradGradGradGradGradGradGradGradGradGradGradGradGradGradGradGradGrad

                          Input orientation:                          
 ---------------------------------------------------------------------
 Center     Atomic      Atomic             Coordinates (Angstroms)
 Number     Number       Type             X           Y           Z
 ---------------------------------------------------------------------
      1          6           0        1.645922   13.397303  100.760818
      2          6           0        1.551264   12.221804  100.038118
      3          6           0        0.998155   12.220741   98.762714
      4          6           0        0.541218   13.416011   98.225081
      5          6           0        0.638809   14.593175   98.946732
      6          6           0        1.190269   14.586158  100.216116
      7          1           0        2.075186   13.385469  101.751781
      8          1           0        1.907245   11.295080  100.465296
      9          1           0        0.108209   13.427719   97.234720
     10          6           0        0.922598   10.931701   97.979432
     11          1           0        0.239359   11.075842   97.132665
     12          6           0        2.296758   10.509066   97.459340
     13          1           0        2.218175    9.564461   96.926989
     14          1           0        2.986700   10.377061   98.288748
     15          1           0        1.263902   15.504021  100.780138
     16          1           0        0.281115   15.517160   98.516836
     17          6           0        0.304158    9.860736   98.844376
     18          1           0       -0.656982   10.176968   99.299165
     19          1           0        2.696286   11.265674   96.788741
     20          8           0        0.761654    8.773850   99.052193
 ---------------------------------------------------------------------
                    Distance matrix (angstroms):
                    1          2          3          4          5
     1  C    0.000000
     2  C    1.383131   0.000000
     3  C    2.407555   1.390175   0.000000
     4  C    2.765987   2.394457   1.387988   0.000000
     5  C    2.394847   2.765338   2.406540   1.384204   0.000000
     6  C    1.384810   2.398368   2.782891   2.398902   1.384013
     7  H    1.080007   2.136645   3.383949   3.845985   3.374911
     8  H    2.138916   1.080750   2.140579   3.373861   3.846088
     9  H    3.846928   3.375749   2.140926   1.080948   2.137946
    10  C    3.786621   2.509537   1.510252   2.525389   3.797709
    11  H    4.531125   3.387621   2.131577   2.600169   3.977691
    12  C    4.434552   3.184231   2.512963   3.481179   4.651997
    13  H    5.451274   4.145523   3.451688   4.396778   5.644619
    14  H    4.126824   2.919563   2.752837   3.901237   4.870437
    15  H    2.141162   3.377294   3.862713   3.377925   2.140504
    16  H    3.375196   3.845380   3.382452   2.137196   1.080049
    17  C    4.240328   2.924882   2.461285   3.616587   4.745360
    18  H    4.220231   3.098992   2.684076   3.616730   4.615860
    19  H    4.628661   3.575431   2.773512   3.366205   4.467930
    20  O    5.007758   3.672046   3.467101   4.720420   5.821577
                    6          7          8          9         10
     6  C    0.000000
     7  H    2.140794   0.000000
     8  H    3.377475   2.460279   0.000000
     9  H    3.376619   4.926928   4.268641   0.000000
    10  C    4.292954   4.645433   2.698350   2.729089   0.000000
    11  H    4.768041   5.480955   3.733140   2.357740   1.097545
    12  C    5.044483   5.171830   3.131342   3.654961   1.528866
    13  H    6.090351   6.156229   3.951118   4.412642   2.157660
    14  H    4.965723   4.676962   2.597179   4.324720   2.159588
    15  H    1.079822   2.467900   4.269449   4.268096   5.372760
    16  H    2.140298   4.269387   4.926130   2.457536   4.661195
    17  C    4.999647   4.900335   2.693439   3.918259   1.509160
    18  H    4.867657   4.875915   3.030725   3.926172   2.192348
    19  H    5.004058   5.432408   3.760386   3.401688   2.162232
    20  O    5.943177   5.502742   3.108994   5.038720   2.415169
                   11         12         13         14         15
    11  H    0.000000
    12  C    2.158899   0.000000
    13  H    2.498457   1.087130   0.000000
    14  H    3.061488   1.086905   1.762197   0.000000
    15  H    5.827736   6.086383   7.143932   5.954895   0.000000
    16  H    4.652201   5.501102   6.458672   5.813161   2.467505
    17  C    2.100151   2.511795   2.725365   2.787714   6.042760
    18  H    2.511000   3.495686   3.777420   3.786476   5.853252
    19  H    2.488134   1.087097   1.772520   1.767483   5.995545
    20  O    3.042458   2.811530   2.694997   2.846747   6.966581
                   16         17         18         19         20
    16  H    0.000000
    17  C    5.665946   0.000000
    18  H    5.478112   1.109335   0.000000
    19  H    5.185991   3.452790   4.328038   0.000000
    20  O    6.781575   1.197419   2.010538   3.882680   0.000000
 Stoichiometry    C9H10O
 Framework group  C1[X(C9H10O)]
 Deg. of freedom    54
 Full point group                 C1      NOp   1
 Largest Abelian subgroup         C1      NOp   1
 Largest concise Abelian subgroup C1      NOp   1
                         Standard orientation:                         
 ---------------------------------------------------------------------
 Center     Atomic      Atomic             Coordinates (Angstroms)
 Number     Number       Type             X           Y           Z
 ---------------------------------------------------------------------
      1          6           0        1.867161    1.341352    0.420517
      2          6           0        0.534769    0.976016    0.354834
      3          6           0        0.172266   -0.293222   -0.081300
      4          6           0        1.166416   -1.188505   -0.450953
      5          6           0        2.500094   -0.824364   -0.382205
      6          6           0        2.853142    0.441263    0.052578
      7          1           0        2.136687    2.331067    0.758505
      8          1           0       -0.233080    1.680179    0.642206
      9          1           0        0.896958   -2.177965   -0.792728
     10          6           0       -1.286304   -0.682364   -0.126039
     11          1           0       -1.386869   -1.596086   -0.725711
     12          6           0       -1.845261   -0.928472    1.275542
     13          1           0       -2.902131   -1.176106    1.215909
     14          1           0       -1.738042   -0.034121    1.883820
     15          1           0        3.893432    0.726232    0.103613
     16          1           0        3.264550   -1.530507   -0.671123
     17          6           0       -2.063622    0.387996   -0.852448
     18          1           0       -1.626942    0.641139   -1.840301
     19          1           0       -1.312936   -1.745016    1.756861
     20          8           0       -3.047949    0.937873   -0.449276
 ---------------------------------------------------------------------
 Rotational constants (GHZ):           2.9682783           0.8447028           0.7643633
 Standard basis: def2TZVP (5D, 7F)
 There are   420 symmetry adapted cartesian basis functions of A   symmetry.
 There are   370 symmetry adapted basis functions of A   symmetry.
   370 basis functions,   590 primitive gaussians,   420 cartesian basis functions
    36 alpha electrons       36 beta electrons
       nuclear repulsion energy       488.6225733148 Hartrees.
 NAtoms=   20 NActive=   20 NUniq=   20 SFac= 1.00D+00 NAtFMM=   60 NAOKFM=F Big=F
 Integral buffers will be    131072 words long.
 Raffenetti 2 integral format.
 Two-electron integral symmetry is turned on.
 ------------------------------------------------------------------------------
 Polarizable Continuum Model (PCM)
 =================================
 Model                : PCM.
 Atomic radii         : SMD-Coulomb.
 Polarization charges : Total charges.
 Charge compensation  : None.
 Solution method      : On-the-fly selection.
 Cavity type          : VdW (van der Waals Surface) (Alpha=1.000).
 Cavity algorithm     : GePol (No added spheres)
                        Default sphere list used, NSphG=   20.
                        Lebedev-Laikov grids with approx.  5.0 points / Ang**2.
                        Smoothing algorithm: York/Karplus (Gamma=1.0000).
                        Polarization charges: spherical gaussians, with
                                              point-specific exponents (IZeta= 3).
                        Self-potential: point-specific (ISelfS= 7).
                        Self-field    : sphere-specific E.n sum rule (ISelfD= 2).
 1st derivatives      : Analytical E(r).r(x)/FMM algorithm (CHGder, D1EAlg=3).
                        Cavity 1st derivative terms included.
 Solvent              : Water, Eps=  78.355300 Eps(inf)=   1.777849
 ------------------------------------------------------------------------------
 Spheres list:
 ISph  on   Nord     Re0    Alpha      Xe            Ye            Ze
    1   C      1    1.8500  1.000      1.867161      1.341352      0.420517
    2   C      2    1.8500  1.000      0.534769      0.976016      0.354834
    3   C      3    1.8500  1.000      0.172266     -0.293222     -0.081300
    4   C      4    1.8500  1.000      1.166416     -1.188505     -0.450953
    5   C      5    1.8500  1.000      2.500094     -0.824364     -0.382205
    6   C      6    1.8500  1.000      2.853142      0.441263      0.052578
    7   H      7    1.2000  1.000      2.136687      2.331067      0.758505
    8   H      8    1.2000  1.000     -0.233080      1.680179      0.642206
    9   H      9    1.2000  1.000      0.896958     -2.177965     -0.792728
   10   C     10    1.8500  1.000     -1.286304     -0.682364     -0.126039
   11   H     11    1.2000  1.000     -1.386869     -1.596086     -0.725711
   12   C     12    1.8500  1.000     -1.845261     -0.928472      1.275542
   13   H     13    1.2000  1.000     -2.902131     -1.176106      1.215909
   14   H     14    1.2000  1.000     -1.738042     -0.034121      1.883820
   15   H     15    1.2000  1.000      3.893432      0.726232      0.103613
   16   H     16    1.2000  1.000      3.264550     -1.530507     -0.671123
   17   C     17    1.8500  1.000     -2.063622      0.387996     -0.852448
   18   H     18    1.2000  1.000     -1.626942      0.641139     -1.840301
   19   H     19    1.2000  1.000     -1.312936     -1.745016      1.756861
   20   O     20    1.5200  1.000     -3.047949      0.937873     -0.449276
 ------------------------------------------------------------------------------
 ------------------------------------------------------------------------------
 Atomic radii for non-electrostatic terms: SMD-CDS.
 ------------------------------------------------------------------------------
 Nuclear repulsion after PCM non-electrostatic terms =      488.6304601959 Hartrees.
 One-electron integrals computed using PRISM.
   1 Symmetry operations used in ECPInt.
 ECPInt:  NShTT=   11325 NPrTT=   34180 LenC2=   10946 LenP2D=   25966.
 LDataN:  DoStor=T MaxTD1= 6 Len=  172
 NBasis=   370 RedAO= T EigKep=  7.86D-06  NBF=   370
 NBsUse=   370 1.00D-06 EigRej= -1.00D+00 NBFU=   370
 ExpMin= 9.52D-02 ExpMax= 2.70D+04 ExpMxC= 9.22D+02 IAcc=3 IRadAn=         5 AccDes= 0.00D+00
 Harris functional with IExCor= 1009 and IRadAn=       5 diagonalized for initial guess.
 HarFok:  IExCor= 1009 AccDes= 0.00D+00 IRadAn=         5 IDoV= 1 UseB2=F ITyADJ=14
 ICtDFT=  3500011 ScaDFX=  1.000000  1.000000  1.000000  1.000000
 FoFCou: FMM=F IPFlag=           0 FMFlag=      100000 FMFlg1=           0
         NFxFlg=           0 DoJE=T BraDBF=F KetDBF=T FulRan=T
         wScrn=  0.000000 ICntrl=       500 IOpCl=  0 I1Cent=   200000004 NGrid=           0
         NMat0=    1 NMatS0=      1 NMatT0=    0 NMatD0=    1 NMtDS0=    0 NMtDT0=    0
 Petite list used in FoFCou.
 Requested convergence on RMS density matrix=1.00D-08 within 128 cycles.
 Requested convergence on MAX density matrix=1.00D-06.
 Requested convergence on             energy=1.00D-06.
 No special actions if energy rises.
 Inv3:  Mode=1 IEnd=     7179627.
 Iteration    1 A*A^-1 deviation from unit magnitude is 3.89D-15 for   1545.
 Iteration    1 A*A^-1 deviation from orthogonality  is 2.10D-15 for   1269    886.
 Iteration    1 A^-1*A deviation from unit magnitude is 3.77D-15 for   1534.
 Iteration    1 A^-1*A deviation from orthogonality  is 2.68D-15 for   1521    833.
 Error on total polarization charges =  0.05178
 SCF Done:  E(RM062X) =  -424.172908614     A.U. after   13 cycles
            NFock= 13  Conv=0.30D-08     -V/T= 2.0046
 SMD-CDS (non-electrostatic) energy       (kcal/mol) =       4.95
 (included in total energy above)

 **********************************************************************

            Population analysis using the SCF Density.

 **********************************************************************

 Orbital symmetries:
       Occupied  (A) (A) (A) (A) (A) (A) (A) (A) (A) (A) (A) (A)
                 (A) (A) (A) (A) (A) (A) (A) (A) (A) (A) (A) (A)
                 (A) (A) (A) (A) (A) (A) (A) (A) (A) (A) (A) (A)
       Virtual   (A) (A) (A) (A) (A) (A) (A) (A) (A) (A) (A) (A)
                 (A) (A) (A) (A) (A) (A) (A) (A) (A) (A) (A) (A)
                 (A) (A) (A) (A) (A) (A) (A) (A) (A) (A) (A) (A)
                 (A) (A) (A) (A) (A) (A) (A) (A) (A) (A) (A) (A)
                 (A) (A) (A) (A) (A) (A) (A) (A) (A) (A) (A) (A)
                 (A) (A) (A) (A) (A) (A) (A) (A) (A) (A) (A) (A)
                 (A) (A) (A) (A) (A) (A) (A) (A) (A) (A) (A) (A)
                 (A) (A) (A) (A) (A) (A) (A) (A) (A) (A) (A) (A)
                 (A) (A) (A) (A) (A) (A) (A) (A) (A) (A) (A) (A)
                 (A) (A) (A) (A) (A) (A) (A) (A) (A) (A) (A) (A)
                 (A) (A) (A) (A) (A) (A) (A) (A) (A) (A) (A) (A)
                 (A) (A) (A) (A) (A) (A) (A) (A) (A) (A) (A) (A)
                 (A) (A) (A) (A) (A) (A) (A) (A) (A) (A) (A) (A)
                 (A) (A) (A) (A) (A) (A) (A) (A) (A) (A) (A) (A)
                 (A) (A) (A) (A) (A) (A) (A) (A) (A) (A) (A) (A)
                 (A) (A) (A) (A) (A) (A) (A) (A) (A) (A) (A) (A)
                 (A) (A) (A) (A) (A) (A) (A) (A) (A) (A) (A) (A)
                 (A) (A) (A) (A) (A) (A) (A) (A) (A) (A) (A) (A)
                 (A) (A) (A) (A) (A) (A) (A) (A) (A) (A) (A) (A)
                 (A) (A) (A) (A) (A) (A) (A) (A) (A) (A) (A) (A)
                 (A) (A) (A) (A) (A) (A) (A) (A) (A) (A) (A) (A)
                 (A) (A) (A) (A) (A) (A) (A) (A) (A) (A) (A) (A)
                 (A) (A) (A) (A) (A) (A) (A) (A) (A) (A) (A) (A)
                 (A) (A) (A) (A) (A) (A) (A) (A) (A) (A) (A) (A)
                 (A) (A) (A) (A) (A) (A) (A) (A) (A) (A) (A) (A)
                 (A) (A) (A) (A) (A) (A) (A) (A) (A) (A) (A) (A)
                 (A) (A) (A) (A) (A) (A) (A) (A) (A) (A) (A) (A)
                 (A) (A) (A) (A) (A) (A) (A) (A) (A) (A)
 The electronic state is 1-A.
 Alpha  occ. eigenvalues --  -19.63952 -10.63252 -10.55124 -10.54924 -10.53901
 Alpha  occ. eigenvalues --  -10.53839 -10.53817 -10.53754 -10.53651 -10.52106
 Alpha  occ. eigenvalues --   -1.19236  -0.97290  -0.90485  -0.84565  -0.82345
 Alpha  occ. eigenvalues --   -0.75591  -0.69457  -0.68268  -0.63435  -0.59460
 Alpha  occ. eigenvalues --   -0.57062  -0.54529  -0.53518  -0.50943  -0.50273
 Alpha  occ. eigenvalues --   -0.48461  -0.46806  -0.45624  -0.44298  -0.43498
 Alpha  occ. eigenvalues --   -0.41918  -0.39670  -0.39011  -0.33928  -0.31267
 Alpha  occ. eigenvalues --   -0.30357
 Alpha virt. eigenvalues --    0.00590   0.01886   0.03402   0.08548   0.10222
 Alpha virt. eigenvalues --    0.10660   0.11997   0.13186   0.13788   0.14056
 Alpha virt. eigenvalues --    0.15489   0.15630   0.17421   0.17619   0.19049
 Alpha virt. eigenvalues --    0.19825   0.22036   0.22149   0.23609   0.24817
 Alpha virt. eigenvalues --    0.25335   0.25728   0.26967   0.27325   0.28147
 Alpha virt. eigenvalues --    0.28590   0.30147   0.30737   0.31063   0.33258
 Alpha virt. eigenvalues --    0.33914   0.36054   0.36998   0.37293   0.38263
 Alpha virt. eigenvalues --    0.39267   0.39841   0.40167   0.40929   0.42085
 Alpha virt. eigenvalues --    0.43424   0.44195   0.44491   0.45151   0.45808
 Alpha virt. eigenvalues --    0.46543   0.47320   0.47961   0.48490   0.49463
 Alpha virt. eigenvalues --    0.49850   0.51208   0.53034   0.53565   0.54431
 Alpha virt. eigenvalues --    0.54881   0.55343   0.56949   0.59482   0.60132
 Alpha virt. eigenvalues --    0.62514   0.63058   0.64193   0.64992   0.68464
 Alpha virt. eigenvalues --    0.68488   0.69774   0.71542   0.73395   0.74323
 Alpha virt. eigenvalues --    0.75091   0.76584   0.78665   0.79024   0.81907
 Alpha virt. eigenvalues --    0.83010   0.84270   0.85842   0.87596   0.89455
 Alpha virt. eigenvalues --    0.91004   0.92171   0.92485   0.93386   0.94346
 Alpha virt. eigenvalues --    0.96638   0.97839   0.99497   1.04210   1.05171
 Alpha virt. eigenvalues --    1.05967   1.08062   1.08619   1.10743   1.11722
 Alpha virt. eigenvalues --    1.13807   1.15090   1.16007   1.19081   1.21309
 Alpha virt. eigenvalues --    1.23567   1.24557   1.25445   1.26051   1.28020
 Alpha virt. eigenvalues --    1.28129   1.29510   1.30351   1.32734   1.33788
 Alpha virt. eigenvalues --    1.37205   1.38185   1.41760   1.43984   1.45226
 Alpha virt. eigenvalues --    1.48160   1.50177   1.50307   1.51530   1.53185
 Alpha virt. eigenvalues --    1.53979   1.54958   1.57024   1.59182   1.60037
 Alpha virt. eigenvalues --    1.61437   1.62245   1.63536   1.64224   1.66111
 Alpha virt. eigenvalues --    1.66852   1.67033   1.69138   1.71940   1.72759
 Alpha virt. eigenvalues --    1.73689   1.75488   1.75868   1.76624   1.78472
 Alpha virt. eigenvalues --    1.81861   1.85142   1.88990   1.90103   1.90463
 Alpha virt. eigenvalues --    1.94756   1.96487   1.97064   1.99847   2.01554
 Alpha virt. eigenvalues --    2.02133   2.05847   2.08142   2.09345   2.10370
 Alpha virt. eigenvalues --    2.12335   2.13937   2.15064   2.18335   2.19512
 Alpha virt. eigenvalues --    2.20496   2.22262   2.25958   2.26310   2.27489
 Alpha virt. eigenvalues --    2.29519   2.31318   2.32516   2.34828   2.38317
 Alpha virt. eigenvalues --    2.40651   2.41689   2.44053   2.45150   2.47390
 Alpha virt. eigenvalues --    2.49652   2.52215   2.54489   2.56546   2.57565
 Alpha virt. eigenvalues --    2.58454   2.59820   2.61653   2.63258   2.64636
 Alpha virt. eigenvalues --    2.65831   2.66767   2.67911   2.69248   2.70597
 Alpha virt. eigenvalues --    2.71386   2.71875   2.72816   2.73911   2.76073
 Alpha virt. eigenvalues --    2.77702   2.78398   2.79276   2.81857   2.81966
 Alpha virt. eigenvalues --    2.83141   2.84778   2.85478   2.86115   2.88535
 Alpha virt. eigenvalues --    2.89434   2.91321   2.93242   2.95783   2.98282
 Alpha virt. eigenvalues --    2.99189   3.00343   3.02895   3.05029   3.05791
 Alpha virt. eigenvalues --    3.06871   3.08253   3.11944   3.12954   3.14045
 Alpha virt. eigenvalues --    3.14288   3.15704   3.15949   3.17220   3.18000
 Alpha virt. eigenvalues --    3.19223   3.19504   3.21270   3.23184   3.23391
 Alpha virt. eigenvalues --    3.25331   3.27511   3.28785   3.30918   3.31320
 Alpha virt. eigenvalues --    3.32471   3.33930   3.34334   3.36262   3.38510
 Alpha virt. eigenvalues --    3.39778   3.40697   3.42602   3.44748   3.45826
 Alpha virt. eigenvalues --    3.46751   3.48466   3.48895   3.50103   3.52050
 Alpha virt. eigenvalues --    3.53713   3.54813   3.56022   3.58067   3.59500
 Alpha virt. eigenvalues --    3.60550   3.61602   3.64100   3.68419   3.69909
 Alpha virt. eigenvalues --    3.72513   3.74357   3.76784   3.79849   3.81742
 Alpha virt. eigenvalues --    3.87889   3.91906   3.93594   3.94170   3.97274
 Alpha virt. eigenvalues --    3.98000   4.01522   4.03358   4.04700   4.05850
 Alpha virt. eigenvalues --    4.10160   4.11307   4.14992   4.16365   4.17611
 Alpha virt. eigenvalues --    4.19066   4.20985   4.23182   4.25071   4.25371
 Alpha virt. eigenvalues --    4.28803   4.30828   4.32737   4.35011   4.39811
 Alpha virt. eigenvalues --    4.42801   4.45467   4.52694   4.54025   4.60805
 Alpha virt. eigenvalues --    4.63990   4.65188   4.66900   4.69473   4.73776
 Alpha virt. eigenvalues --    4.81592   4.84755   4.86464   4.89943   4.93612
 Alpha virt. eigenvalues --    5.05499   5.19108   5.19762   5.20826   5.21484
 Alpha virt. eigenvalues --    5.32749   5.35235   5.44164   5.57570   5.60099
 Alpha virt. eigenvalues --    5.68052   6.12017   6.32974   6.35363   6.40177
 Alpha virt. eigenvalues --    6.46380   6.78792   6.92424   7.05448  22.15940
 Alpha virt. eigenvalues --   22.51653  22.68310  22.75076  22.82682  22.85619
 Alpha virt. eigenvalues --   22.94972  22.98448  23.35728  43.98967
          Condensed to atoms (all electrons):
               1          2          3          4          5          6
     1  C    4.990331   0.480381  -0.057342  -0.044720  -0.053799   0.488808
     2  C    0.480381   5.155880   0.411061  -0.038467  -0.048612  -0.044124
     3  C   -0.057342   0.411061   5.232033   0.440367  -0.062151  -0.044128
     4  C   -0.044720  -0.038467   0.440367   5.080935   0.489737  -0.046613
     5  C   -0.053799  -0.048612  -0.062151   0.489737   4.977114   0.495945
     6  C    0.488808  -0.044124  -0.044128  -0.046613   0.495945   4.986569
     7  H    0.419375  -0.033012   0.005190  -0.000559   0.003990  -0.031981
     8  H   -0.019318   0.410787  -0.051887   0.005809  -0.001683   0.004410
     9  H   -0.002293   0.009831  -0.032001   0.413500  -0.032182   0.004945
    10  C    0.010172  -0.051335   0.089138  -0.057322   0.012544  -0.003157
    11  H   -0.000975   0.012180  -0.074080   0.004448  -0.000279   0.000502
    12  C    0.001695  -0.025761  -0.003903  -0.002547  -0.000582  -0.000217
    13  H   -0.000033   0.000925   0.014989  -0.000678   0.000034  -0.000004
    14  H    0.000252  -0.000763  -0.022497   0.003266  -0.000085   0.000089
    15  H   -0.032686   0.004396  -0.000060   0.003643  -0.032513   0.419265
    16  H    0.005158  -0.001447   0.006986  -0.038384   0.424457  -0.034373
    17  C    0.000228  -0.013617   0.032395  -0.002159  -0.001557   0.000252
    18  H   -0.000937  -0.002476   0.029680   0.002796  -0.000323   0.000069
    19  H   -0.000078  -0.000387   0.009170  -0.003380  -0.000274  -0.000079
    20  O   -0.000010   0.001237   0.003350  -0.000541   0.000016   0.000022
               7          8          9         10         11         12
     1  C    0.419375  -0.019318  -0.002293   0.010172  -0.000975   0.001695
     2  C   -0.033012   0.410787   0.009831  -0.051335   0.012180  -0.025761
     3  C    0.005190  -0.051887  -0.032001   0.089138  -0.074080  -0.003903
     4  C   -0.000559   0.005809   0.413500  -0.057322   0.004448  -0.002547
     5  C    0.003990  -0.001683  -0.032182   0.012544  -0.000279  -0.000582
     6  C   -0.031981   0.004410   0.004945  -0.003157   0.000502  -0.000217
     7  H    0.460111  -0.002946   0.000047  -0.000103   0.000001   0.000027
     8  H   -0.002946   0.440787  -0.000095   0.005038   0.000736  -0.002879
     9  H    0.000047  -0.000095   0.460038  -0.006517   0.001972  -0.000099
    10  C   -0.000103   0.005038  -0.006517   5.816039   0.443215   0.171453
    11  H    0.000001   0.000736   0.001972   0.443215   0.492535  -0.033244
    12  C    0.000027  -0.002879  -0.000099   0.171453  -0.033244   5.131692
    13  H   -0.000001  -0.000072  -0.000008  -0.053036  -0.004563   0.419990
    14  H   -0.000001   0.000847  -0.000054  -0.007067   0.005783   0.409139
    15  H   -0.003426  -0.000170  -0.000166   0.000020  -0.000001   0.000001
    16  H   -0.000171   0.000040  -0.003405  -0.000179  -0.000063   0.000020
    17  C   -0.000063   0.003459   0.000402   0.138325  -0.035182  -0.032033
    18  H    0.000007   0.001332   0.000191  -0.175107   0.001554   0.013703
    19  H    0.000005   0.000059   0.000415  -0.049375  -0.003738   0.412822
    20  O   -0.000008   0.003686  -0.000002  -0.140313   0.002745   0.024364
              13         14         15         16         17         18
     1  C   -0.000033   0.000252  -0.032686   0.005158   0.000228  -0.000937
     2  C    0.000925  -0.000763   0.004396  -0.001447  -0.013617  -0.002476
     3  C    0.014989  -0.022497  -0.000060   0.006986   0.032395   0.029680
     4  C   -0.000678   0.003266   0.003643  -0.038384  -0.002159   0.002796
     5  C    0.000034  -0.000085  -0.032513   0.424457  -0.001557  -0.000323
     6  C   -0.000004   0.000089   0.419265  -0.034373   0.000252   0.000069
     7  H   -0.000001  -0.000001  -0.003426  -0.000171  -0.000063   0.000007
     8  H   -0.000072   0.000847  -0.000170   0.000040   0.003459   0.001332
     9  H   -0.000008  -0.000054  -0.000166  -0.003405   0.000402   0.000191
    10  C   -0.053036  -0.007067   0.000020  -0.000179   0.138325  -0.175107
    11  H   -0.004563   0.005783  -0.000001  -0.000063  -0.035182   0.001554
    12  C    0.419990   0.409139   0.000001   0.000020  -0.032033   0.013703
    13  H    0.503323  -0.027517   0.000000  -0.000000  -0.004613   0.000136
    14  H   -0.027517   0.503860  -0.000001  -0.000002  -0.012965   0.000073
    15  H    0.000000  -0.000001   0.461876  -0.003608   0.000004   0.000001
    16  H   -0.000000  -0.000002  -0.003608   0.462466   0.000008  -0.000001
    17  C   -0.004613  -0.012965   0.000004   0.000008   4.715220   0.480422
    18  H    0.000136   0.000073   0.000001  -0.000001   0.480422   0.552152
    19  H   -0.018687  -0.022498  -0.000001   0.000005   0.010185  -0.000020
    20  O    0.003414   0.001538   0.000000  -0.000000   0.579700  -0.053280
              19         20
     1  C   -0.000078  -0.000010
     2  C   -0.000387   0.001237
     3  C    0.009170   0.003350
     4  C   -0.003380  -0.000541
     5  C   -0.000274   0.000016
     6  C   -0.000079   0.000022
     7  H    0.000005  -0.000008
     8  H    0.000059   0.003686
     9  H    0.000415  -0.000002
    10  C   -0.049375  -0.140313
    11  H   -0.003738   0.002745
    12  C    0.412822   0.024364
    13  H   -0.018687   0.003414
    14  H   -0.022498   0.001538
    15  H   -0.000001   0.000000
    16  H    0.000005  -0.000000
    17  C    0.010185   0.579700
    18  H   -0.000020  -0.053280
    19  H    0.497040   0.000924
    20  O    0.000924   7.952701
 Mulliken charges:
               1
     1  C   -0.184210
     2  C   -0.226675
     3  C    0.073691
     4  C   -0.209132
     5  C   -0.169797
     6  C   -0.196202
     7  H    0.183519
     8  H    0.202061
     9  H    0.185482
    10  C   -0.142433
    11  H    0.186455
    12  C   -0.483642
    13  H    0.166400
    14  H    0.168603
    15  H    0.183424
    16  H    0.182491
    17  C    0.141586
    18  H    0.150028
    19  H    0.167894
    20  O   -0.379543
 Sum of Mulliken charges =  -0.00000
 Mulliken charges with hydrogens summed into heavy atoms:
               1
     1  C   -0.000691
     2  C   -0.024615
     3  C    0.073691
     4  C   -0.023650
     5  C    0.012694
     6  C   -0.012777
    10  C    0.044022
    12  C    0.019255
    17  C    0.291614
    20  O   -0.379543
 Electronic spatial extent (au):  <R**2>=           1566.0505
 Charge=              0.0000 electrons
 Dipole moment (field-independent basis, Debye):
    X=              3.0990    Y=             -2.1552    Z=             -0.7240  Tot=              3.8435
 Quadrupole moment (field-independent basis, Debye-Ang):
   XX=            -67.8290   YY=            -55.4257   ZZ=            -60.1995
   XY=              6.8302   XZ=              0.1078   YZ=              3.4887
 Traceless Quadrupole moment (field-independent basis, Debye-Ang):
   XX=             -6.6776   YY=              5.7257   ZZ=              0.9519
   XY=              6.8302   XZ=              0.1078   YZ=              3.4887
 Octapole moment (field-independent basis, Debye-Ang**2):
  XXX=             62.7559  YYY=             -1.5499  ZZZ=             -5.3455  XYY=              6.7575
  XXY=            -20.4352  XXZ=              0.1169  XZZ=            -12.6915  YZZ=              0.2905
  YYZ=              0.5787  XYZ=              2.3388
 Hexadecapole moment (field-independent basis, Debye-Ang**3):
 XXXX=          -1552.6786 YYYY=           -369.5341 ZZZZ=           -232.6951 XXXY=             68.0253
 XXXZ=            -15.5505 YYYX=              4.3491 YYYZ=             17.8559 ZZZX=             12.5494
 ZZZY=             -2.6029 XXYY=           -312.6099 XXZZ=           -296.7914 YYZZ=           -101.5116
 XXYZ=             22.3304 YYXZ=             -0.4020 ZZXY=             -3.6167
 N-N= 4.886304601959D+02 E-N=-1.963682524446D+03  KE= 4.222434945251D+02
   1 Symmetry operations used in ECPInt.
 ECPInt:  NShTT=   11325 NPrTT=   34180 LenC2=   10946 LenP2D=   25966.
 LDataN:  DoStor=T MaxTD1= 7 Len=  274
 D1PCM: PCM CHGder 1st derivatives, ID1Alg=3 FixD1E=F DoIter=F DoCFld=F I1PDM=0.
 Calling FoFJK, ICntrl=      2127 FMM=F ISym2X=0 I1Cent= 0 IOpClX= 0 NMat=1 NMatS=1 NMatT=0.
 ***** Axes restored to original set *****
 -------------------------------------------------------------------
 Center     Atomic                   Forces (Hartrees/Bohr)
 Number     Number              X              Y              Z
 -------------------------------------------------------------------
      1        6           0.001540652    0.000000767    0.003103282
      2        6          -0.000295836   -0.000980793   -0.000376641
      3        6          -0.002882285   -0.002411840   -0.001630262
      4        6          -0.000853335   -0.000418131   -0.002098780
      5        6          -0.000676294    0.002675726   -0.001010296
      6        6           0.000287446    0.002709705    0.001634089
      7        1           0.000710489   -0.000011499    0.001839015
      8        1           0.001484301   -0.002488766    0.001501493
      9        1          -0.000886883   -0.000752313   -0.001851794
     10        6           0.009209155   -0.003653870   -0.002864909
     11        1          -0.000817888   -0.000545064    0.002560852
     12        6          -0.004960507   -0.000340443    0.000273516
     13        1           0.000976171   -0.001433630   -0.001948625
     14        1           0.002050040   -0.000247035    0.001910994
     15        1           0.000140722    0.001628116    0.001066418
     16        1          -0.000624775    0.001663799   -0.000755241
     17        6          -0.013667113    0.021177755   -0.002942000
     18        1           0.001433750   -0.004039550    0.000613819
     19        1           0.000497973    0.000905469   -0.000949521
     20        8           0.007334215   -0.013438404    0.001924592
 -------------------------------------------------------------------
 Cartesian Forces:  Max     0.021177755 RMS     0.004353222

 GradGradGradGradGradGradGradGradGradGradGradGradGradGradGradGradGradGrad
 Berny optimization.
 FormGI is forming the generalized inverse of G from B-inverse, IUseBI=4.
 Internal  Forces:  Max     0.015328729 RMS     0.002310943
 Search for a local minimum.
 Step number   1 out of a maximum of  108
 All quantities printed in internal units (Hartrees-Bohrs-Radians)
 Mixed Optimization -- RFO/linear search
 Second derivative matrix not updated -- first step.
 ITU=  0
     Eigenvalues ---    0.00384   0.00630   0.00645   0.00645   0.01587
     Eigenvalues ---    0.02240   0.02265   0.02273   0.02288   0.02294
     Eigenvalues ---    0.02298   0.02299   0.02303   0.04428   0.05045
     Eigenvalues ---    0.05656   0.05721   0.06658   0.16000   0.16000
     Eigenvalues ---    0.16000   0.16000   0.16000   0.16000   0.16000
     Eigenvalues ---    0.16000   0.16000   0.17695   0.18303   0.22000
     Eigenvalues ---    0.22000   0.22000   0.23477   0.24997   0.29528
     Eigenvalues ---    0.31325   0.31435   0.32671   0.33955   0.35146
     Eigenvalues ---    0.35150   0.35173   0.35880   0.35904   0.35988
     Eigenvalues ---    0.35994   0.36016   0.43410   0.43506   0.47631
     Eigenvalues ---    0.47949   0.48322   0.48458   1.06131
 RFO step:  Lambda=-1.42094508D-03 EMin= 3.84107759D-03
 Linear search not attempted -- first point.
 Iteration  1 RMS(Cart)=  0.02193589 RMS(Int)=  0.00025994
 Iteration  2 RMS(Cart)=  0.00032527 RMS(Int)=  0.00004735
 Iteration  3 RMS(Cart)=  0.00000007 RMS(Int)=  0.00004735
 Variable       Old X    -DE/DX   Delta X   Delta X   Delta X     New X
                                 (Linear)    (Quad)   (Total)
    R1        2.61374   0.00517   0.00000   0.01063   0.01063   2.62437
    R2        2.61691   0.00478   0.00000   0.00999   0.00999   2.62690
    R3        2.04092   0.00197   0.00000   0.00545   0.00545   2.04637
    R4        2.62705   0.00462   0.00000   0.00965   0.00966   2.63671
    R5        2.04232   0.00322   0.00000   0.00892   0.00892   2.05124
    R6        2.62292   0.00371   0.00000   0.00766   0.00766   2.63058
    R7        2.85396   0.00201   0.00000   0.00639   0.00639   2.86036
    R8        2.61577   0.00536   0.00000   0.01105   0.01105   2.62681
    R9        2.04270   0.00204   0.00000   0.00568   0.00568   2.04837
   R10        2.61541   0.00495   0.00000   0.01030   0.01030   2.62571
   R11        2.04100   0.00193   0.00000   0.00535   0.00535   2.04634
   R12        2.04057   0.00195   0.00000   0.00539   0.00539   2.04596
   R13        2.07406  -0.00154   0.00000  -0.00451  -0.00451   2.06955
   R14        2.88914  -0.00073   0.00000  -0.00247  -0.00247   2.88667
   R15        2.85190  -0.00085   0.00000  -0.00271  -0.00271   2.84919
   R16        2.05438   0.00213   0.00000   0.00603   0.00603   2.06041
   R17        2.05395   0.00280   0.00000   0.00792   0.00792   2.06187
   R18        2.05432   0.00139   0.00000   0.00395   0.00395   2.05827
   R19        2.09634  -0.00214   0.00000  -0.00652  -0.00652   2.08982
   R20        2.26279   0.01533   0.00000   0.01442   0.01442   2.27722
    A1        2.09622  -0.00021   0.00000  -0.00071  -0.00071   2.09551
    A2        2.09130   0.00013   0.00000   0.00050   0.00050   2.09181
    A3        2.09566   0.00008   0.00000   0.00021   0.00020   2.09587
    A4        2.10279   0.00049   0.00000   0.00202   0.00201   2.10480
    A5        2.09404  -0.00069   0.00000  -0.00376  -0.00378   2.09026
    A6        2.08636   0.00020   0.00000   0.00176   0.00174   2.08810
    A7        2.07795  -0.00033   0.00000  -0.00180  -0.00180   2.07615
    A8        2.09022   0.00101   0.00000   0.00420   0.00418   2.09440
    A9        2.11490  -0.00068   0.00000  -0.00255  -0.00257   2.11233
   A10        2.10272   0.00033   0.00000   0.00119   0.00119   2.10392
   A11        2.08988  -0.00093   0.00000  -0.00535  -0.00535   2.08453
   A12        2.09058   0.00060   0.00000   0.00416   0.00416   2.09473
   A13        2.09665   0.00004   0.00000   0.00030   0.00030   2.09695
   A14        2.09057   0.00000   0.00000  -0.00002  -0.00002   2.09054
   A15        2.09597  -0.00004   0.00000  -0.00028  -0.00028   2.09569
   A16        2.09004  -0.00031   0.00000  -0.00101  -0.00101   2.08903
   A17        2.09653   0.00010   0.00000   0.00017   0.00017   2.09669
   A18        2.09662   0.00021   0.00000   0.00084   0.00084   2.09747
   A19        1.89567  -0.00069   0.00000  -0.01202  -0.01218   1.88349
   A20        1.94702   0.00148   0.00000   0.01725   0.01715   1.96418
   A21        1.90599  -0.00101   0.00000  -0.00121  -0.00151   1.90447
   A22        1.91068   0.00025   0.00000   0.00573   0.00585   1.91653
   A23        1.85487  -0.00115   0.00000  -0.02392  -0.02398   1.83089
   A24        1.94671   0.00094   0.00000   0.01156   0.01147   1.95818
   A25        1.91963   0.00187   0.00000   0.01286   0.01284   1.93247
   A26        1.92253   0.00026   0.00000   0.00255   0.00251   1.92504
   A27        1.92600  -0.00048   0.00000  -0.00519  -0.00518   1.92082
   A28        1.89023  -0.00057   0.00000   0.00082   0.00075   1.89099
   A29        1.90629  -0.00094   0.00000  -0.00761  -0.00759   1.89870
   A30        1.89860  -0.00018   0.00000  -0.00358  -0.00358   1.89502
   A31        1.96895   0.00651   0.00000   0.03597   0.03597   2.00492
   A32        2.19819  -0.00516   0.00000  -0.02329  -0.02329   2.17490
   A33        2.11604  -0.00135   0.00000  -0.01269  -0.01269   2.10335
    D1       -0.00152  -0.00001   0.00000  -0.00072  -0.00073  -0.00224
    D2       -3.14128  -0.00022   0.00000  -0.00945  -0.00944   3.13246
    D3        3.13884   0.00002   0.00000   0.00042   0.00042   3.13926
    D4       -0.00092  -0.00020   0.00000  -0.00830  -0.00829  -0.00922
    D5        0.00110   0.00002   0.00000   0.00037   0.00037   0.00147
    D6        3.14144   0.00001   0.00000   0.00048   0.00048  -3.14127
    D7       -3.13926  -0.00001   0.00000  -0.00078  -0.00078  -3.14003
    D8        0.00108  -0.00001   0.00000  -0.00067  -0.00067   0.00041
    D9       -0.00085  -0.00004   0.00000  -0.00043  -0.00043  -0.00128
   D10        3.12487  -0.00023   0.00000  -0.01080  -0.01082   3.11405
   D11        3.13892   0.00017   0.00000   0.00825   0.00827  -3.13600
   D12       -0.01854  -0.00001   0.00000  -0.00212  -0.00212  -0.02066
   D13        0.00366   0.00008   0.00000   0.00194   0.00195   0.00561
   D14       -3.14047   0.00005   0.00000   0.00089   0.00090  -3.13957
   D15       -3.12183   0.00025   0.00000   0.01240   0.01238  -3.10945
   D16        0.01723   0.00022   0.00000   0.01135   0.01133   0.02856
   D17        2.89079  -0.00079   0.00000   0.00832   0.00838   2.89917
   D18       -1.28492  -0.00001   0.00000   0.01832   0.01830  -1.26663
   D19        0.87496   0.00150   0.00000   0.04397   0.04395   0.91890
   D20       -0.26702  -0.00098   0.00000  -0.00227  -0.00222  -0.26923
   D21        1.84046  -0.00019   0.00000   0.00774   0.00770   1.84816
   D22       -2.28285   0.00131   0.00000   0.03338   0.03335  -2.24950
   D23       -0.00410  -0.00007   0.00000  -0.00232  -0.00233  -0.00642
   D24        3.13987  -0.00004   0.00000  -0.00131  -0.00131   3.13856
   D25        3.14002  -0.00004   0.00000  -0.00125  -0.00125   3.13877
   D26        0.00081  -0.00001   0.00000  -0.00024  -0.00024   0.00057
   D27        0.00169   0.00002   0.00000   0.00114   0.00114   0.00283
   D28       -3.13865   0.00003   0.00000   0.00103   0.00103  -3.13762
   D29        3.14090  -0.00001   0.00000   0.00013   0.00012   3.14102
   D30        0.00056  -0.00000   0.00000   0.00002   0.00002   0.00058
   D31        3.11096   0.00047   0.00000   0.03224   0.03231  -3.13992
   D32        1.02872  -0.00016   0.00000   0.02160   0.02163   1.05035
   D33       -1.06790   0.00020   0.00000   0.02773   0.02778  -1.04013
   D34       -1.07355   0.00072   0.00000   0.03203   0.03207  -1.04148
   D35        3.12740   0.00010   0.00000   0.02139   0.02139  -3.13440
   D36        1.03078   0.00046   0.00000   0.02752   0.02753   1.05831
   D37        0.97429   0.00003   0.00000   0.01310   0.01305   0.98734
   D38       -1.10795  -0.00060   0.00000   0.00246   0.00237  -1.10557
   D39        3.07861  -0.00024   0.00000   0.00860   0.00852   3.08713
   D40        0.90142  -0.00109   0.00000   0.00228   0.00234   0.90376
   D41       -2.23706  -0.00107   0.00000   0.00454   0.00460  -2.23246
   D42       -1.14042   0.00085   0.00000   0.02990   0.02983  -1.11059
   D43        2.00429   0.00087   0.00000   0.03216   0.03208   2.03637
   D44        3.06148   0.00073   0.00000   0.03128   0.03129   3.09278
   D45       -0.07699   0.00075   0.00000   0.03354   0.03355  -0.04344
         Item               Value     Threshold  Converged?
 Maximum Force            0.015329     0.000450     NO 
 RMS     Force            0.002311     0.000300     NO 
 Maximum Displacement     0.085904     0.001800     NO 
 RMS     Displacement     0.021894     0.001200     NO 
 Predicted change in Energy=-7.230968D-04
 GradGradGradGradGradGradGradGradGradGradGradGradGradGradGradGradGradGrad

                          Input orientation:                          
 ---------------------------------------------------------------------
 Center     Atomic      Atomic             Coordinates (Angstroms)
 Number     Number       Type             X           Y           Z
 ---------------------------------------------------------------------
      1          6           0        1.657378   13.412254  100.767762
      2          6           0        1.562709   12.229386  100.046299
      3          6           0        0.998477   12.219058   98.770229
      4          6           0        0.529757   13.413738   98.230945
      5          6           0        0.628166   14.599747   98.949231
      6          6           0        1.190579   14.601447  100.219781
      7          1           0        2.095526   13.406029  101.758034
      8          1           0        1.936506   11.305079  100.475462
      9          1           0        0.088255   13.414339   97.240982
     10          6           0        0.934487   10.928785   97.981436
     11          1           0        0.248509   11.081114   97.141435
     12          6           0        2.302520   10.492764   97.460088
     13          1           0        2.222070    9.563149   96.896043
     14          1           0        2.990584   10.331603   98.291404
     15          1           0        1.264111   15.524297  100.781146
     16          1           0        0.262076   15.522481   98.516607
     17          6           0        0.281694    9.864865   98.827120
     18          1           0       -0.690761   10.152819   99.268030
     19          1           0        2.717334   11.262404   96.810539
     20          8           0        0.750023    8.774641   99.037427
 ---------------------------------------------------------------------
                    Distance matrix (angstroms):
                    1          2          3          4          5
     1  C    0.000000
     2  C    1.388757   0.000000
     3  C    2.418265   1.395285   0.000000
     4  C    2.776144   2.401081   1.392044   0.000000
     5  C    2.403429   2.774084   2.415958   1.390050   0.000000
     6  C    1.390096   2.407333   2.795333   2.408902   1.389464
     7  H    1.082890   2.144393   3.396969   3.859022   3.386367
     8  H    2.145585   1.085471   2.150133   3.385740   3.859530
     9  H    3.860094   3.383480   2.143781   1.083952   2.148211
    10  C    3.801816   2.519898   1.513636   2.530030   3.808730
    11  H    4.535347   3.388788   2.123756   2.589839   3.974047
    12  C    4.458737   3.201822   2.529246   3.502713   4.678495
    13  H    5.488597   4.179437   3.473270   4.412813   5.667754
    14  H    4.171354   2.952975   2.785722   3.944474   4.922480
    15  H    2.148386   3.389041   3.878009   3.390761   2.148285
    16  H    3.386389   3.856952   3.393997   2.144774   1.082878
    17  C    4.271131   2.952686   2.461552   3.607140   4.749111
    18  H    4.287991   3.161639   2.714898   3.633016   4.649341
    19  H    4.626551   3.569083   2.776696   3.381018   4.480679
    20  O    5.032375   3.689653   3.463687   4.713825   5.827048
                    6          7          8          9         10
     6  C    0.000000
     7  H    2.148063   0.000000
     8  H    3.389369   2.466631   0.000000
     9  H    3.390810   4.942972   4.280989   0.000000
    10  C    4.308622   4.663416   2.714001   2.728069   0.000000
    11  H    4.770373   5.489052   3.743692   2.340840   1.095158
    12  C    5.072830   5.196374   3.144249   3.672408   1.527558
    13  H    6.123370   6.198605   3.991003   4.416313   2.168158
    14  H    5.018987   4.719190   2.613206   4.362357   2.163386
    15  H    1.082676   2.476413   4.283381   4.285711   5.391267
    16  H    2.147376   4.283429   4.942399   2.470161   4.673392
    17  C    5.020038   4.941669   2.744021   3.892559   1.507728
    18  H    4.922963   4.954482   3.112575   3.918329   2.213341
    19  H    5.010302   5.427659   3.747422   3.424641   2.158899
    20  O    5.961855   5.537313   3.143056   5.019158   2.406133
                   11         12         13         14         15
    11  H    0.000000
    12  C    2.160245   0.000000
    13  H    2.501875   1.090323   0.000000
    14  H    3.066459   1.091096   1.768662   0.000000
    15  H    5.832737   6.117519   7.179624   6.011954   0.000000
    16  H    4.649411   5.529710   6.479309   5.868619   2.476331
    17  C    2.078917   2.519280   2.754116   2.800521   6.067333
    18  H    2.503271   3.513396   3.802450   3.812881   5.913021
    19  H    2.497490   1.089187   1.772022   1.770315   6.003441
    20  O    3.027559   2.801819   2.715547   2.828567   6.990185
                   16         17         18         19         20
    16  H    0.000000
    17  C    5.666164   0.000000
    18  H    5.505071   1.105888   0.000000
    19  H    5.204539   3.457175   4.345751   0.000000
    20  O    6.785476   1.205052   2.007090   3.875345   0.000000
 Stoichiometry    C9H10O
 Framework group  C1[X(C9H10O)]
 Deg. of freedom    54
 Full point group                 C1      NOp   1
 Largest Abelian subgroup         C1      NOp   1
 Largest concise Abelian subgroup C1      NOp   1
                         Standard orientation:                         
 ---------------------------------------------------------------------
 Center     Atomic      Atomic             Coordinates (Angstroms)
 Number     Number       Type             X           Y           Z
 ---------------------------------------------------------------------
      1          6           0        1.887750    1.343259    0.413125
      2          6           0        0.547056    0.986089    0.352999
      3          6           0        0.169754   -0.286681   -0.076561
      4          6           0        1.158770   -1.193964   -0.445980
      5          6           0        2.501542   -0.840313   -0.381701
      6          6           0        2.868993    0.429484    0.046324
      7          1           0        2.166917    2.335090    0.746274
      8          1           0       -0.214715    1.700603    0.648671
      9          1           0        0.874319   -2.184250   -0.782689
     10          6           0       -1.293318   -0.673746   -0.102917
     11          1           0       -1.388440   -1.591461   -0.692936
     12          6           0       -1.865483   -0.896005    1.295890
     13          1           0       -2.918262   -1.174553    1.242318
     14          1           0       -1.781334    0.016208    1.888576
     15          1           0        3.914541    0.706671    0.093065
     16          1           0        3.260783   -1.556832   -0.669410
     17          6           0       -2.065269    0.365696   -0.875508
     18          1           0       -1.659262    0.596919   -1.877846
     19          1           0       -1.317813   -1.690133    1.801605
     20          8           0       -3.049438    0.929854   -0.468955
 ---------------------------------------------------------------------
 Rotational constants (GHZ):           2.9562690           0.8370832           0.7606744
 Standard basis: def2TZVP (5D, 7F)
 There are   420 symmetry adapted cartesian basis functions of A   symmetry.
 There are   370 symmetry adapted basis functions of A   symmetry.
   370 basis functions,   590 primitive gaussians,   420 cartesian basis functions
    36 alpha electrons       36 beta electrons
       nuclear repulsion energy       487.1178874023 Hartrees.
 NAtoms=   20 NActive=   20 NUniq=   20 SFac= 1.00D+00 NAtFMM=   60 NAOKFM=F Big=F
 Integral buffers will be    131072 words long.
 Raffenetti 2 integral format.
 Two-electron integral symmetry is turned on.
 ------------------------------------------------------------------------------
 Polarizable Continuum Model (PCM)
 =================================
 Model                : PCM.
 Atomic radii         : SMD-Coulomb.
 Polarization charges : Total charges.
 Charge compensation  : None.
 Solution method      : On-the-fly selection.
 Cavity type          : VdW (van der Waals Surface) (Alpha=1.000).
 Cavity algorithm     : GePol (No added spheres)
                        Default sphere list used, NSphG=   20.
                        Lebedev-Laikov grids with approx.  5.0 points / Ang**2.
                        Smoothing algorithm: York/Karplus (Gamma=1.0000).
                        Polarization charges: spherical gaussians, with
                                              point-specific exponents (IZeta= 3).
                        Self-potential: point-specific (ISelfS= 7).
                        Self-field    : sphere-specific E.n sum rule (ISelfD= 2).
 1st derivatives      : Analytical E(r).r(x)/FMM algorithm (CHGder, D1EAlg=3).
                        Cavity 1st derivative terms included.
 Solvent              : Water, Eps=  78.355300 Eps(inf)=   1.777849
 ------------------------------------------------------------------------------
 Spheres list:
 ISph  on   Nord     Re0    Alpha      Xe            Ye            Ze
    1   C      1    1.8500  1.000      1.887750      1.343259      0.413125
    2   C      2    1.8500  1.000      0.547056      0.986089      0.352999
    3   C      3    1.8500  1.000      0.169754     -0.286681     -0.076561
    4   C      4    1.8500  1.000      1.158770     -1.193964     -0.445980
    5   C      5    1.8500  1.000      2.501542     -0.840313     -0.381701
    6   C      6    1.8500  1.000      2.868993      0.429484      0.046324
    7   H      7    1.2000  1.000      2.166917      2.335090      0.746274
    8   H      8    1.2000  1.000     -0.214715      1.700603      0.648671
    9   H      9    1.2000  1.000      0.874319     -2.184250     -0.782689
   10   C     10    1.8500  1.000     -1.293318     -0.673746     -0.102917
   11   H     11    1.2000  1.000     -1.388440     -1.591461     -0.692936
   12   C     12    1.8500  1.000     -1.865483     -0.896005      1.295890
   13   H     13    1.2000  1.000     -2.918262     -1.174553      1.242318
   14   H     14    1.2000  1.000     -1.781334      0.016208      1.888576
   15   H     15    1.2000  1.000      3.914541      0.706671      0.093065
   16   H     16    1.2000  1.000      3.260783     -1.556832     -0.669410
   17   C     17    1.8500  1.000     -2.065269      0.365696     -0.875508
   18   H     18    1.2000  1.000     -1.659262      0.596919     -1.877846
   19   H     19    1.2000  1.000     -1.317813     -1.690133      1.801605
   20   O     20    1.5200  1.000     -3.049438      0.929854     -0.468955
 ------------------------------------------------------------------------------
 ------------------------------------------------------------------------------
 Atomic radii for non-electrostatic terms: SMD-CDS.
 ------------------------------------------------------------------------------
 Nuclear repulsion after PCM non-electrostatic terms =      487.1258084280 Hartrees.
 One-electron integrals computed using PRISM.
   1 Symmetry operations used in ECPInt.
 ECPInt:  NShTT=   11325 NPrTT=   34180 LenC2=   10938 LenP2D=   25940.
 LDataN:  DoStor=T MaxTD1= 6 Len=  172
 NBasis=   370 RedAO= T EigKep=  8.22D-06  NBF=   370
 NBsUse=   370 1.00D-06 EigRej= -1.00D+00 NBFU=   370
 Initial guess from the checkpoint file:  "/home/data/vip13t32/docs/g16out/mol_for_md/RPP/RPP_Gaussian/water.chk"
 B after Tr=     0.000000    0.000000   -0.000000
         Rot=    0.999971    0.007408    0.000085    0.001736 Ang=   0.87 deg.
 ExpMin= 9.52D-02 ExpMax= 2.70D+04 ExpMxC= 9.22D+02 IAcc=3 IRadAn=         5 AccDes= 0.00D+00
 Harris functional with IExCor= 1009 and IRadAn=       5 diagonalized for initial guess.
 HarFok:  IExCor= 1009 AccDes= 0.00D+00 IRadAn=         5 IDoV= 1 UseB2=F ITyADJ=14
 ICtDFT=  3500011 ScaDFX=  1.000000  1.000000  1.000000  1.000000
 FoFCou: FMM=F IPFlag=           0 FMFlag=      100000 FMFlg1=           0
         NFxFlg=           0 DoJE=T BraDBF=F KetDBF=T FulRan=T
         wScrn=  0.000000 ICntrl=       500 IOpCl=  0 I1Cent=   200000004 NGrid=           0
         NMat0=    1 NMatS0=      1 NMatT0=    0 NMatD0=    1 NMtDS0=    0 NMtDT0=    0
 Petite list used in FoFCou.
 Requested convergence on RMS density matrix=1.00D-08 within 128 cycles.
 Requested convergence on MAX density matrix=1.00D-06.
 Requested convergence on             energy=1.00D-06.
 No special actions if energy rises.
 Inv3:  Mode=1 IEnd=     7272747.
 Iteration    1 A*A^-1 deviation from unit magnitude is 4.66D-15 for   1554.
 Iteration    1 A*A^-1 deviation from orthogonality  is 2.49D-15 for   1533    245.
 Iteration    1 A^-1*A deviation from unit magnitude is 4.66D-15 for   1554.
 Iteration    1 A^-1*A deviation from orthogonality  is 2.48D-15 for   1539    288.
 Error on total polarization charges =  0.05196
 SCF Done:  E(RM062X) =  -424.173686710     A.U. after   11 cycles
            NFock= 11  Conv=0.35D-08     -V/T= 2.0049
 SMD-CDS (non-electrostatic) energy       (kcal/mol) =       4.97
 (included in total energy above)
   1 Symmetry operations used in ECPInt.
 ECPInt:  NShTT=   11325 NPrTT=   34180 LenC2=   10938 LenP2D=   25940.
 LDataN:  DoStor=T MaxTD1= 7 Len=  274
 D1PCM: PCM CHGder 1st derivatives, ID1Alg=3 FixD1E=F DoIter=F DoCFld=F I1PDM=0.
 Calling FoFJK, ICntrl=      2127 FMM=F ISym2X=0 I1Cent= 0 IOpClX= 0 NMat=1 NMatS=1 NMatT=0.
 ***** Axes restored to original set *****
 -------------------------------------------------------------------
 Center     Atomic                   Forces (Hartrees/Bohr)
 Number     Number              X              Y              Z
 -------------------------------------------------------------------
      1        6          -0.000082497   -0.000155695   -0.000249157
      2        6           0.000014050    0.000206756   -0.000419851
      3        6           0.000112679    0.000528347    0.000350902
      4        6           0.000014215    0.000335497    0.000393599
      5        6          -0.000048436   -0.000318818    0.000229622
      6        6          -0.000099105   -0.000292874   -0.000366523
      7        1          -0.000093266   -0.000051921   -0.000131725
      8        1          -0.000077453    0.000069022   -0.000030470
      9        1           0.000033567   -0.000111673    0.000104509
     10        6           0.002734232   -0.002057514   -0.000561312
     11        1          -0.000681885    0.000435352   -0.000145370
     12        6          -0.002200591   -0.000018223    0.001260248
     13        1           0.000028219    0.000284968   -0.000056655
     14        1           0.000160924   -0.000029874   -0.000088176
     15        1           0.000014071   -0.000096467   -0.000106935
     16        1           0.000053790   -0.000109970    0.000032393
     17        6          -0.002710280    0.007346731   -0.000758302
     18        1           0.000842413   -0.001178232   -0.000439911
     19        1           0.000023916    0.000208443   -0.000048014
     20        8           0.001961436   -0.004993856    0.001031127
 -------------------------------------------------------------------
 Cartesian Forces:  Max     0.007346731 RMS     0.001383332

 GradGradGradGradGradGradGradGradGradGradGradGradGradGradGradGradGradGrad
 Berny optimization.
 Using GEDIIS/GDIIS optimizer.
 FormGI is forming the generalized inverse of G from B-inverse, IUseBI=4.
 Internal  Forces:  Max     0.005454396 RMS     0.000656775
 Search for a local minimum.
 Step number   2 out of a maximum of  108
 All quantities printed in internal units (Hartrees-Bohrs-Radians)
 Mixed Optimization -- En-DIIS/RFO-DIIS
 Update second derivatives using D2CorX and points    1    2
 DE= -7.78D-04 DEPred=-7.23D-04 R= 1.08D+00
 TightC=F SS=  1.41D+00  RLast= 1.33D-01 DXNew= 5.0454D-01 3.9991D-01
 Trust test= 1.08D+00 RLast= 1.33D-01 DXMaxT set to 4.00D-01
 ITU=  1  0
 Use linear search instead of GDIIS.
     Eigenvalues ---    0.00381   0.00616   0.00638   0.00651   0.01595
     Eigenvalues ---    0.02241   0.02270   0.02275   0.02290   0.02295
     Eigenvalues ---    0.02298   0.02299   0.02303   0.04303   0.05031
     Eigenvalues ---    0.05596   0.05682   0.06611   0.15020   0.16000
     Eigenvalues ---    0.16000   0.16000   0.16000   0.16000   0.16000
     Eigenvalues ---    0.16000   0.16050   0.17971   0.18432   0.21775
     Eigenvalues ---    0.22000   0.22020   0.23508   0.25049   0.29355
     Eigenvalues ---    0.31254   0.31471   0.32416   0.34053   0.35130
     Eigenvalues ---    0.35159   0.35287   0.35886   0.35942   0.35991
     Eigenvalues ---    0.36009   0.36515   0.43438   0.43533   0.47678
     Eigenvalues ---    0.48206   0.48323   0.52227   0.97549
 RFO step:  Lambda=-1.32299407D-04 EMin= 3.81493237D-03
 Quartic linear search produced a step of  0.12790.
 Iteration  1 RMS(Cart)=  0.01629669 RMS(Int)=  0.00021381
 Iteration  2 RMS(Cart)=  0.00021140 RMS(Int)=  0.00005343
 Iteration  3 RMS(Cart)=  0.00000003 RMS(Int)=  0.00005343
 Variable       Old X    -DE/DX   Delta X   Delta X   Delta X     New X
                                 (Linear)    (Quad)   (Total)
    R1        2.62437  -0.00059   0.00136  -0.00180  -0.00044   2.62393
    R2        2.62690  -0.00028   0.00128  -0.00105   0.00023   2.62713
    R3        2.04637  -0.00016   0.00070  -0.00072  -0.00002   2.04634
    R4        2.63671  -0.00078   0.00124  -0.00228  -0.00105   2.63566
    R5        2.05124  -0.00010   0.00114  -0.00067   0.00047   2.05171
    R6        2.63058  -0.00033   0.00098  -0.00110  -0.00012   2.63046
    R7        2.86036  -0.00011   0.00082  -0.00064   0.00017   2.86053
    R8        2.62681  -0.00061   0.00141  -0.00188  -0.00046   2.62635
    R9        2.04837  -0.00011   0.00073  -0.00057   0.00015   2.04852
   R10        2.62571  -0.00055   0.00132  -0.00168  -0.00036   2.62534
   R11        2.04634  -0.00012   0.00068  -0.00061   0.00008   2.04642
   R12        2.04596  -0.00014   0.00069  -0.00065   0.00004   2.04600
   R13        2.06955   0.00060  -0.00058   0.00217   0.00160   2.07114
   R14        2.88667  -0.00226  -0.00032  -0.00854  -0.00885   2.87781
   R15        2.84919  -0.00097  -0.00035  -0.00336  -0.00371   2.84548
   R16        2.06041  -0.00022   0.00077  -0.00094  -0.00017   2.06024
   R17        2.06187   0.00005   0.00101  -0.00018   0.00084   2.06271
   R18        2.05827   0.00018   0.00051   0.00041   0.00092   2.05919
   R19        2.08982  -0.00122  -0.00083  -0.00394  -0.00477   2.08506
   R20        2.27722   0.00545   0.00184   0.00519   0.00704   2.28426
    A1        2.09551  -0.00003  -0.00009  -0.00008  -0.00017   2.09534
    A2        2.09181  -0.00003   0.00006  -0.00030  -0.00023   2.09157
    A3        2.09587   0.00006   0.00003   0.00038   0.00041   2.09628
    A4        2.10480  -0.00008   0.00026  -0.00055  -0.00029   2.10451
    A5        2.09026   0.00006  -0.00048   0.00049   0.00000   2.09026
    A6        2.08810   0.00003   0.00022   0.00008   0.00030   2.08840
    A7        2.07615   0.00017  -0.00023   0.00083   0.00059   2.07674
    A8        2.09440  -0.00031   0.00053  -0.00150  -0.00097   2.09343
    A9        2.11233   0.00014  -0.00033   0.00080   0.00046   2.11280
   A10        2.10392  -0.00003   0.00015  -0.00021  -0.00006   2.10386
   A11        2.08453  -0.00009  -0.00068  -0.00048  -0.00116   2.08337
   A12        2.09473   0.00013   0.00053   0.00069   0.00122   2.09595
   A13        2.09695  -0.00011   0.00004  -0.00051  -0.00048   2.09647
   A14        2.09054   0.00004  -0.00000   0.00016   0.00016   2.09070
   A15        2.09569   0.00007  -0.00004   0.00036   0.00032   2.09601
   A16        2.08903   0.00008  -0.00013   0.00054   0.00041   2.08943
   A17        2.09669  -0.00001   0.00002  -0.00006  -0.00003   2.09666
   A18        2.09747  -0.00007   0.00011  -0.00048  -0.00037   2.09709
   A19        1.88349  -0.00023  -0.00156  -0.00317  -0.00476   1.87873
   A20        1.96418   0.00018   0.00219   0.00028   0.00246   1.96664
   A21        1.90447  -0.00021  -0.00019  -0.00241  -0.00265   1.90183
   A22        1.91653   0.00022   0.00075   0.00442   0.00519   1.92172
   A23        1.83089   0.00001  -0.00307   0.00080  -0.00230   1.82859
   A24        1.95818   0.00001   0.00147  -0.00002   0.00144   1.95962
   A25        1.93247   0.00006   0.00164   0.00004   0.00168   1.93415
   A26        1.92504   0.00029   0.00032   0.00237   0.00269   1.92773
   A27        1.92082  -0.00021  -0.00066  -0.00186  -0.00252   1.91830
   A28        1.89099  -0.00006   0.00010   0.00069   0.00077   1.89176
   A29        1.89870  -0.00001  -0.00097  -0.00060  -0.00157   1.89713
   A30        1.89502  -0.00007  -0.00046  -0.00066  -0.00112   1.89391
   A31        2.00492   0.00097   0.00460   0.00521   0.00950   2.01442
   A32        2.17490  -0.00027  -0.00298  -0.00037  -0.00365   2.17125
   A33        2.10335  -0.00070  -0.00162  -0.00462  -0.00654   2.09681
    D1       -0.00224  -0.00001  -0.00009  -0.00034  -0.00043  -0.00267
    D2        3.13246   0.00005  -0.00121   0.00277   0.00156   3.13402
    D3        3.13926  -0.00004   0.00005  -0.00157  -0.00152   3.13775
    D4       -0.00922   0.00002  -0.00106   0.00153   0.00047  -0.00874
    D5        0.00147   0.00002   0.00005   0.00131   0.00136   0.00283
    D6       -3.14127   0.00002   0.00006   0.00071   0.00077  -3.14050
    D7       -3.14003   0.00005  -0.00010   0.00255   0.00245  -3.13758
    D8        0.00041   0.00004  -0.00009   0.00194   0.00186   0.00227
    D9       -0.00128   0.00001  -0.00005  -0.00031  -0.00036  -0.00165
   D10        3.11405   0.00008  -0.00138   0.00506   0.00368   3.11773
   D11       -3.13600  -0.00005   0.00106  -0.00341  -0.00235  -3.13835
   D12       -0.02066   0.00002  -0.00027   0.00196   0.00169  -0.01897
   D13        0.00561  -0.00001   0.00025  -0.00002   0.00023   0.00584
   D14       -3.13957   0.00002   0.00011   0.00171   0.00183  -3.13774
   D15       -3.10945  -0.00008   0.00158  -0.00541  -0.00384  -3.11329
   D16        0.02856  -0.00005   0.00145  -0.00368  -0.00224   0.02632
   D17        2.89917  -0.00011   0.00107   0.01040   0.01149   2.91066
   D18       -1.26663   0.00013   0.00234   0.01396   0.01629  -1.25033
   D19        0.91890   0.00012   0.00562   0.01232   0.01793   0.93684
   D20       -0.26923  -0.00003  -0.00028   0.01589   0.01562  -0.25362
   D21        1.84816   0.00021   0.00099   0.01944   0.02042   1.86858
   D22       -2.24950   0.00019   0.00427   0.01780   0.02206  -2.22744
   D23       -0.00642   0.00003  -0.00030   0.00101   0.00071  -0.00572
   D24        3.13856  -0.00000  -0.00017  -0.00038  -0.00055   3.13801
   D25        3.13877  -0.00001  -0.00016  -0.00074  -0.00090   3.13787
   D26        0.00057  -0.00004  -0.00003  -0.00212  -0.00215  -0.00158
   D27        0.00283  -0.00003   0.00015  -0.00164  -0.00150   0.00133
   D28       -3.13762  -0.00002   0.00013  -0.00104  -0.00090  -3.13852
   D29        3.14102   0.00000   0.00002  -0.00025  -0.00024   3.14078
   D30        0.00058   0.00001   0.00000   0.00035   0.00036   0.00093
   D31       -3.13992   0.00010   0.00413   0.01589   0.02004  -3.11988
   D32        1.05035  -0.00005   0.00277   0.01346   0.01623   1.06658
   D33       -1.04013  -0.00001   0.00355   0.01396   0.01752  -1.02261
   D34       -1.04148   0.00008   0.00410   0.01512   0.01923  -1.02226
   D35       -3.13440  -0.00007   0.00274   0.01269   0.01542  -3.11897
   D36        1.05831  -0.00003   0.00352   0.01319   0.01671   1.07502
   D37        0.98734   0.00023   0.00167   0.01889   0.02056   1.00790
   D38       -1.10557   0.00009   0.00030   0.01646   0.01675  -1.08882
   D39        3.08713   0.00012   0.00109   0.01696   0.01804   3.10517
   D40        0.90376   0.00010   0.00030   0.04096   0.04127   0.94503
   D41       -2.23246  -0.00017   0.00059  -0.00513  -0.00453  -2.23699
   D42       -1.11059   0.00046   0.00381   0.04531   0.04911  -1.06148
   D43        2.03637   0.00019   0.00410  -0.00078   0.00331   2.03969
   D44        3.09278   0.00018   0.00400   0.03950   0.04350   3.13628
   D45       -0.04344  -0.00009   0.00429  -0.00659  -0.00229  -0.04574
         Item               Value     Threshold  Converged?
 Maximum Force            0.005454     0.000450     NO 
 RMS     Force            0.000657     0.000300     NO 
 Maximum Displacement     0.073991     0.001800     NO 
 RMS     Displacement     0.016294     0.001200     NO 
 Predicted change in Energy=-7.300286D-05
 GradGradGradGradGradGradGradGradGradGradGradGradGradGradGradGradGradGrad

                          Input orientation:                          
 ---------------------------------------------------------------------
 Center     Atomic      Atomic             Coordinates (Angstroms)
 Number     Number       Type             X           Y           Z
 ---------------------------------------------------------------------
      1          6           0        1.669374   13.416591  100.762647
      2          6           0        1.578106   12.234076  100.040621
      3          6           0        1.004665   12.221431   98.769290
      4          6           0        0.522652   13.412886   98.234778
[...]
 Stoichiometry    C9H10O
 Framework group  C1[X(C9H10O)]
 Deg. of freedom    54
 Full point group                 C1      NOp   1
 Largest Abelian subgroup         C1      NOp   1
 Largest concise Abelian subgroup C1      NOp   1
                         Standard orientation:                         
 ---------------------------------------------------------------------
 Center     Atomic      Atomic             Coordinates (Angstroms)
 Number     Number       Type             X           Y           Z
 ---------------------------------------------------------------------
      1          6           0        1.880266    1.348396    0.371892
      2          6           0        0.542227    0.980047    0.358764
      3          6           0        0.164854   -0.307834   -0.020613
      4          6           0        1.149716   -1.217483   -0.393123
      5          6           0        2.490320   -0.851656   -0.377860
      6          6           0        2.858420    0.431518    0.004659
      7          1           0        2.159933    2.351890    0.666787
      8          1           0       -0.218569    1.697893    0.647129
      9          1           0        0.863459   -2.218692   -0.693285
     10          6           0       -1.300977   -0.695692   -0.014138
     11          1           0       -1.383374   -1.684118   -0.479301
     12          6           0       -1.904186   -0.716303    1.382951
     13          1           0       -2.953687   -1.008744    1.345792
     14          1           0       -1.840080    0.269950    1.844491
     15          1           0        3.902426    0.717348    0.015110
     16          1           0        3.247072   -1.570238   -0.666295
     17          6           0       -2.034728    0.236519   -0.940585
     18          1           0       -1.647971    0.277068   -1.972947
     19          1           0       -1.366430   -1.426480    2.010464
     20          8           0       -2.979782    0.918632   -0.618703
 ---------------------------------------------------------------------
 Rotational constants (GHZ):           2.9162532           0.8393479           0.7747080

 **********************************************************************

            Population analysis using the SCF Density.

 **********************************************************************

 Orbital symmetries:
       Occupied  (A) (A) (A) (A) (A) (A) (A) (A) (A) (A) (A) (A)
                 (A) (A) (A) (A) (A) (A) (A) (A) (A) (A) (A) (A)
                 (A) (A) (A) (A) (A) (A) (A) (A) (A) (A) (A) (A)
       Virtual   (A) (A) (A) (A) (A) (A) (A) (A) (A) (A) (A) (A)
                 (A) (A) (A) (A) (A) (A) (A) (A) (A) (A) (A) (A)
                 (A) (A) (A) (A) (A) (A) (A) (A) (A) (A) (A) (A)
                 (A) (A) (A) (A) (A) (A) (A) (A) (A) (A) (A) (A)
                 (A) (A) (A) (A) (A) (A) (A) (A) (A) (A) (A) (A)
                 (A) (A) (A) (A) (A) (A) (A) (A) (A) (A) (A) (A)
                 (A) (A) (A) (A) (A) (A) (A) (A) (A) (A) (A) (A)
                 (A) (A) (A) (A) (A) (A) (A) (A) (A) (A) (A) (A)
                 (A) (A) (A) (A) (A) (A) (A) (A) (A) (A) (A) (A)
                 (A) (A) (A) (A) (A) (A) (A) (A) (A) (A) (A) (A)
                 (A) (A) (A) (A) (A) (A) (A) (A) (A) (A) (A) (A)
                 (A) (A) (A) (A) (A) (A) (A) (A) (A) (A) (A) (A)
                 (A) (A) (A) (A) (A) (A) (A) (A) (A) (A) (A) (A)
                 (A) (A) (A) (A) (A) (A) (A) (A) (A) (A) (A) (A)
                 (A) (A) (A) (A) (A) (A) (A) (A) (A) (A) (A) (A)
                 (A) (A) (A) (A) (A) (A) (A) (A) (A) (A) (A) (A)
                 (A) (A) (A) (A) (A) (A) (A) (A) (A) (A) (A) (A)
                 (A) (A) (A) (A) (A) (A) (A) (A) (A) (A) (A) (A)
                 (A) (A) (A) (A) (A) (A) (A) (A) (A) (A) (A) (A)
                 (A) (A) (A) (A) (A) (A) (A) (A) (A) (A) (A) (A)
                 (A) (A) (A) (A) (A) (A) (A) (A) (A) (A) (A) (A)
                 (A) (A) (A) (A) (A) (A) (A) (A) (A) (A) (A) (A)
                 (A) (A) (A) (A) (A) (A) (A) (A) (A) (A) (A) (A)
                 (A) (A) (A) (A) (A) (A) (A) (A) (A) (A) (A) (A)
                 (A) (A) (A) (A) (A) (A) (A) (A) (A) (A) (A) (A)
                 (A) (A) (A) (A) (A) (A) (A) (A) (A) (A) (A) (A)
                 (A) (A) (A) (A) (A) (A) (A) (A) (A) (A) (A) (A)
                 (A) (A) (A) (A) (A) (A) (A) (A) (A) (A)
 The electronic state is 1-A.
 Alpha  occ. eigenvalues --  -19.63770 -10.63284 -10.55351 -10.55002 -10.54089
 Alpha  occ. eigenvalues --  -10.54048 -10.54009 -10.53967 -10.53874 -10.52205
 Alpha  occ. eigenvalues --   -1.18486  -0.97085  -0.90442  -0.84429  -0.82330
 Alpha  occ. eigenvalues --   -0.75698  -0.69287  -0.68266  -0.63490  -0.59255
 Alpha  occ. eigenvalues --   -0.57082  -0.54147  -0.53428  -0.51002  -0.50169
 Alpha  occ. eigenvalues --   -0.48398  -0.46506  -0.45378  -0.44164  -0.43448
 Alpha  occ. eigenvalues --   -0.41923  -0.39569  -0.39034  -0.34171  -0.31223
 Alpha  occ. eigenvalues --   -0.30360
 Alpha virt. eigenvalues --    0.00220   0.01690   0.03626   0.08488   0.10174
 Alpha virt. eigenvalues --    0.10500   0.12234   0.13197   0.13757   0.14061
 Alpha virt. eigenvalues --    0.15454   0.15641   0.17436   0.17520   0.18997
 Alpha virt. eigenvalues --    0.19860   0.21759   0.22101   0.23452   0.24621
 Alpha virt. eigenvalues --    0.25160   0.25388   0.26686   0.27281   0.27966
 Alpha virt. eigenvalues --    0.28944   0.30032   0.30496   0.31042   0.32995
 Alpha virt. eigenvalues --    0.33897   0.36202   0.36787   0.37375   0.37738
 Alpha virt. eigenvalues --    0.38980   0.39706   0.40088   0.41035   0.42057
 Alpha virt. eigenvalues --    0.43050   0.44328   0.44462   0.45096   0.45793
 Alpha virt. eigenvalues --    0.47113   0.47176   0.47647   0.48301   0.49522
 Alpha virt. eigenvalues --    0.49912   0.51289   0.52876   0.53872   0.54215
 Alpha virt. eigenvalues --    0.54596   0.55849   0.56381   0.58862   0.59665
 Alpha virt. eigenvalues --    0.62255   0.62772   0.64314   0.64887   0.68198
 Alpha virt. eigenvalues --    0.68584   0.69799   0.71298   0.73170   0.73700
 Alpha virt. eigenvalues --    0.74905   0.76085   0.78512   0.78728   0.80813
 Alpha virt. eigenvalues --    0.83071   0.83479   0.85569   0.87949   0.88709
 Alpha virt. eigenvalues --    0.91061   0.91603   0.92551   0.93363   0.94431
 Alpha virt. eigenvalues --    0.96568   0.98862   0.99311   1.04745   1.04996
 Alpha virt. eigenvalues --    1.05804   1.07620   1.08877   1.10318   1.11742
 Alpha virt. eigenvalues --    1.13372   1.14655   1.16975   1.18490   1.20225
 Alpha virt. eigenvalues --    1.22724   1.24348   1.25184   1.25622   1.27329
 Alpha virt. eigenvalues --    1.28366   1.29761   1.30251   1.32257   1.33393
 Alpha virt. eigenvalues --    1.37589   1.38372   1.41347   1.44243   1.45133
 Alpha virt. eigenvalues --    1.48066   1.50101   1.51129   1.51766   1.53389
 Alpha virt. eigenvalues --    1.54451   1.55109   1.56611   1.58992   1.60164
 Alpha virt. eigenvalues --    1.61436   1.61740   1.63551   1.64989   1.65274
 Alpha virt. eigenvalues --    1.66534   1.67178   1.69120   1.71271   1.72841
 Alpha virt. eigenvalues --    1.73665   1.75169   1.75523   1.76521   1.78202
 Alpha virt. eigenvalues --    1.81607   1.84935   1.88865   1.90132   1.90757
 Alpha virt. eigenvalues --    1.94160   1.96323   1.97339   1.99297   2.01602
 Alpha virt. eigenvalues --    2.01848   2.04768   2.08086   2.08795   2.10678
 Alpha virt. eigenvalues --    2.12228   2.13569   2.16657   2.17647   2.19544
 Alpha virt. eigenvalues --    2.20283   2.21694   2.24356   2.25782   2.27214
 Alpha virt. eigenvalues --    2.29709   2.31139   2.31895   2.34833   2.38236
 Alpha virt. eigenvalues --    2.40346   2.41488   2.44043   2.44962   2.47208
 Alpha virt. eigenvalues --    2.50168   2.52778   2.54619   2.56207   2.58073
 Alpha virt. eigenvalues --    2.58182   2.59167   2.62073   2.63139   2.63683
 Alpha virt. eigenvalues --    2.65142   2.67159   2.67682   2.69154   2.69912
 Alpha virt. eigenvalues --    2.71028   2.71383   2.72529   2.73463   2.75352
 Alpha virt. eigenvalues --    2.77816   2.78535   2.78749   2.80870   2.81362
 Alpha virt. eigenvalues --    2.82483   2.83855   2.84864   2.84962   2.87614
 Alpha virt. eigenvalues --    2.89633   2.90119   2.93528   2.94867   2.97630
 Alpha virt. eigenvalues --    2.99013   2.99984   3.03359   3.04595   3.05264
 Alpha virt. eigenvalues --    3.06789   3.08514   3.10518   3.12711   3.13382
 Alpha virt. eigenvalues --    3.14557   3.14969   3.15415   3.16813   3.17871
 Alpha virt. eigenvalues --    3.18992   3.19638   3.20559   3.23001   3.23472
 Alpha virt. eigenvalues --    3.25198   3.27008   3.27623   3.30981   3.31564
 Alpha virt. eigenvalues --    3.32677   3.32910   3.34253   3.36709   3.37677
 Alpha virt. eigenvalues --    3.39698   3.40220   3.42407   3.44283   3.45060
 Alpha virt. eigenvalues --    3.45716   3.48082   3.48296   3.49354   3.51753
 Alpha virt. eigenvalues --    3.54422   3.54562   3.56093   3.58113   3.59176
 Alpha virt. eigenvalues --    3.59744   3.60698   3.63936   3.67715   3.70417
 Alpha virt. eigenvalues --    3.72471   3.73179   3.75424   3.79152   3.81075
 Alpha virt. eigenvalues --    3.87724   3.90138   3.92598   3.93543   3.96767
 Alpha virt. eigenvalues --    3.97877   4.02011   4.02707   4.04161   4.05170
 Alpha virt. eigenvalues --    4.09095   4.11214   4.13695   4.15158   4.17634
 Alpha virt. eigenvalues --    4.17939   4.20430   4.21727   4.24207   4.25662
 Alpha virt. eigenvalues --    4.27898   4.29794   4.31426   4.33162   4.38955
 Alpha virt. eigenvalues --    4.42798   4.44746   4.52408   4.53664   4.61390
 Alpha virt. eigenvalues --    4.62684   4.64772   4.65816   4.69271   4.73253
 Alpha virt. eigenvalues --    4.80660   4.83928   4.84994   4.90940   4.92276
 Alpha virt. eigenvalues --    5.04884   5.17418   5.19308   5.19908   5.20761
 Alpha virt. eigenvalues --    5.32163   5.35111   5.42533   5.55855   5.59680
 Alpha virt. eigenvalues --    5.66006   6.09110   6.29391   6.35490   6.37931
 Alpha virt. eigenvalues --    6.45972   6.78870   6.92605   7.03659  22.16373
 Alpha virt. eigenvalues --   22.51191  22.66517  22.72491  22.81380  22.82740
 Alpha virt. eigenvalues --   22.92693  22.98549  23.32924  43.97719
          Condensed to atoms (all electrons):
               1          2          3          4          5          6
     1  C    4.985533   0.482593  -0.052476  -0.044824  -0.053540   0.485190
     2  C    0.482593   5.154361   0.400948  -0.030456  -0.048781  -0.041886
     3  C   -0.052476   0.400948   5.232548   0.452503  -0.061932  -0.045970
     4  C   -0.044824  -0.030456   0.452503   5.055869   0.489925  -0.046056
     5  C   -0.053540  -0.048781  -0.061932   0.489925   4.977838   0.496141
     6  C    0.485190  -0.041886  -0.045970  -0.046056   0.496141   4.989636
     7  H    0.419173  -0.033172   0.005210  -0.000548   0.003882  -0.031986
     8  H   -0.020017   0.408123  -0.049258   0.005926  -0.001669   0.004544
     9  H   -0.002256   0.009904  -0.032487   0.413440  -0.031815   0.004860
    10  C    0.010328  -0.055671   0.109111  -0.058783   0.013171  -0.003213
    11  H   -0.001004   0.013443  -0.076788   0.004476  -0.000216   0.000537
    12  C    0.001801  -0.021777  -0.008350  -0.001232  -0.000849  -0.000198
    13  H   -0.000036   0.001017   0.014684  -0.000651   0.000023   0.000001
    14  H    0.000373   0.002986  -0.028331   0.002018  -0.000089   0.000121
    15  H   -0.032253   0.004236  -0.000034   0.003576  -0.032354   0.418498
    16  H    0.005200  -0.001476   0.007155  -0.038340   0.423815  -0.034573
    17  C    0.000410  -0.015782   0.028245  -0.002355  -0.001405   0.000080
    18  H   -0.000909   0.000882   0.022350   0.002527  -0.000441   0.000109
    19  H   -0.000132  -0.002819   0.010098  -0.000705  -0.000191  -0.000082
    20  O   -0.000041   0.001452   0.001758  -0.000191   0.000021   0.000025
               7          8          9         10         11         12
     1  C    0.419173  -0.020017  -0.002256   0.010328  -0.001004   0.001801
     2  C   -0.033172   0.408123   0.009904  -0.055671   0.013443  -0.021777
     3  C    0.005210  -0.049258  -0.032487   0.109111  -0.076788  -0.008350
     4  C   -0.000548   0.005926   0.413440  -0.058783   0.004476  -0.001232
     5  C    0.003882  -0.001669  -0.031815   0.013171  -0.000216  -0.000849
     6  C   -0.031986   0.004544   0.004860  -0.003213   0.000537  -0.000198
     7  H    0.459303  -0.003030   0.000045  -0.000015   0.000001   0.000013
     8  H   -0.003030   0.441844  -0.000089   0.002094   0.000681  -0.003237
     9  H    0.000045  -0.000089   0.460100  -0.007395   0.002190   0.000356
    10  C   -0.000015   0.002094  -0.007395   5.760286   0.446202   0.176443
    11  H    0.000001   0.000681   0.002190   0.446202   0.496039  -0.032803
    12  C    0.000013  -0.003237   0.000356   0.176443  -0.032803   5.128256
    13  H   -0.000001  -0.000063  -0.000006  -0.052886  -0.004946   0.420183
    14  H   -0.000006   0.000476  -0.000056   0.002120   0.005911   0.403653
    15  H   -0.003273  -0.000171  -0.000159   0.000025  -0.000001  -0.000000
    16  H   -0.000167   0.000039  -0.003272  -0.000191  -0.000070   0.000018
    17  C   -0.000068   0.003109   0.000227   0.161036  -0.037726  -0.031978
    18  H   -0.000006   0.001746   0.000313  -0.155456   0.001548   0.013103
    19  H    0.000006   0.000240   0.000310  -0.055836  -0.004295   0.418287
    20  O   -0.000007   0.004495   0.000003  -0.144054   0.003430   0.025975
              13         14         15         16         17         18
     1  C   -0.000036   0.000373  -0.032253   0.005200   0.000410  -0.000909
     2  C    0.001017   0.002986   0.004236  -0.001476  -0.015782   0.000882
     3  C    0.014684  -0.028331  -0.000034   0.007155   0.028245   0.022350
     4  C   -0.000651   0.002018   0.003576  -0.038340  -0.002355   0.002527
     5  C    0.000023  -0.000089  -0.032354   0.423815  -0.001405  -0.000441
     6  C    0.000001   0.000121   0.418498  -0.034573   0.000080   0.000109
     7  H   -0.000001  -0.000006  -0.003273  -0.000167  -0.000068  -0.000006
     8  H   -0.000063   0.000476  -0.000171   0.000039   0.003109   0.001746
     9  H   -0.000006  -0.000056  -0.000159  -0.003272   0.000227   0.000313
    10  C   -0.052886   0.002120   0.000025  -0.000191   0.161036  -0.155456
    11  H   -0.004946   0.005911  -0.000001  -0.000070  -0.037726   0.001548
    12  C    0.420183   0.403653  -0.000000   0.000018  -0.031978   0.013103
    13  H    0.499033  -0.026840   0.000000  -0.000000  -0.002222   0.000039
    14  H   -0.026840   0.504389  -0.000000  -0.000002  -0.014736  -0.000039
    15  H    0.000000  -0.000000   0.460769  -0.003539   0.000003   0.000000
    16  H   -0.000000  -0.000002  -0.003539   0.461741   0.000005  -0.000003
    17  C   -0.002222  -0.014736   0.000003   0.000005   4.702159   0.472292
    18  H    0.000039  -0.000039   0.000000  -0.000003   0.472292   0.541401
    19  H   -0.019023  -0.022677  -0.000001   0.000004   0.010040   0.000003
    20  O    0.001708   0.001996   0.000000  -0.000000   0.569043  -0.053287
              19         20
     1  C   -0.000132  -0.000041
     2  C   -0.002819   0.001452
     3  C    0.010098   0.001758
     4  C   -0.000705  -0.000191
     5  C   -0.000191   0.000021
     6  C   -0.000082   0.000025
     7  H    0.000006  -0.000007
     8  H    0.000240   0.004495
     9  H    0.000310   0.000003
    10  C   -0.055836  -0.144054
    11  H   -0.004295   0.003430
    12  C    0.418287   0.025975
    13  H   -0.019023   0.001708
    14  H   -0.022677   0.001996
    15  H   -0.000001   0.000000
    16  H    0.000004  -0.000000
    17  C    0.010040   0.569043
    18  H    0.000003  -0.053287
    19  H    0.496359   0.000912
    20  O    0.000912   7.986177
 Mulliken charges:
               1
     1  C   -0.183112
     2  C   -0.228125
     3  C    0.071017
     4  C   -0.206121
     5  C   -0.171532
     6  C   -0.195778
     7  H    0.184649
     8  H    0.204214
     9  H    0.185785
    10  C   -0.147316
    11  H    0.183391
    12  C   -0.487665
    13  H    0.169985
    14  H    0.168733
    15  H    0.184678
    16  H    0.183656
    17  C    0.159623
    18  H    0.153829
    19  H    0.169503
    20  O   -0.399412
 Sum of Mulliken charges =  -0.00000
 Mulliken charges with hydrogens summed into heavy atoms:
               1
     1  C    0.001536
     2  C   -0.023910
     3  C    0.071017
     4  C   -0.020336
     5  C    0.012123
     6  C   -0.011101
    10  C    0.036075
    12  C    0.020556
    17  C    0.313452
    20  O   -0.399412
 Electronic spatial extent (au):  <R**2>=           1565.7189
 Charge=              0.0000 electrons
 Dipole moment (field-independent basis, Debye):
    X=              3.0799    Y=             -2.4588    Z=             -0.4140  Tot=              3.9627
 Quadrupole moment (field-independent basis, Debye-Ang):
   XX=            -67.1830   YY=            -55.4115   ZZ=            -60.3609
   XY=              7.4942   XZ=             -1.2813   YZ=              3.8322
 Traceless Quadrupole moment (field-independent basis, Debye-Ang):
   XX=             -6.1979   YY=              5.5737   ZZ=              0.6242
   XY=              7.4942   XZ=             -1.2813   YZ=              3.8322
 Octapole moment (field-independent basis, Debye-Ang**2):
  XXX=             60.3076  YYY=             -1.6901  ZZZ=             -6.1761  XYY=              7.2929
  XXY=            -20.9836  XXZ=              2.8182  XZZ=            -12.4906  YZZ=             -0.8399
  YYZ=              1.1963  XYZ=              0.4913
 Hexadecapole moment (field-independent basis, Debye-Ang**3):
 XXXX=          -1532.3755 YYYY=           -352.8265 ZZZZ=           -250.9988 XXXY=             69.1783
 XXXZ=            -29.4527 YYYX=              5.6594 YYYZ=             17.6764 ZZZX=             14.0066
 ZZZY=             -3.4353 XXYY=           -307.3546 XXZZ=           -302.8582 YYZZ=           -105.0211
 XXYZ=             24.7758 YYXZ=             -2.7158 ZZXY=             -1.0802
 N-N= 4.876703087817D+02 E-N=-1.961696341909D+03  KE= 4.221079129769D+02
 Unable to Open any file for archive entry.
 1\1\GINC-BIO3-HORSEA-12U\FOpt\RM062X\def2TZVP\C9H10O1\VIP13T32\01-Apr-
 2023\0\\# opt m062x/def2tzvp scrf=(smd,solvent=water)\\Title Card Requ
 ired\\0,1\C,1.7165241003,13.4181225183,100.7365523508\C,1.6378325393,1
 2.2433174563,100.001812539\C,1.0216122302,12.2291490966,98.7507942115\
 C,0.4797405769,13.4097260928,98.2520040136\C,0.5600400885,14.587831282
 9,98.984739969\C,1.1784789961,14.5946644379,100.2280577732\H,2.1960220
 962,13.4153744787,101.7072485592\H,2.0598995201,11.3270290696,100.4012
 401094\H,-0.0044727409,13.4052098364,97.2824796934\C,0.9588617136,10.9
 388761147,97.9568213743\H,0.3144435614,11.115976915,97.0887705443\C,2.
 3284376098,10.4498157204,97.5082374611\H,2.2396739341,9.5277839975,96.
 9334919153\H,2.9689444093,10.2556333451,98.3695555801\H,1.2397823448,1
 5.511770344,100.799823683\H,0.1377775362,15.5004589834,98.5834499665\C
 ,0.228992078,9.9158425865,98.7853165172\H,-0.7780356924,10.2135745839,
 99.1233224279\H,2.8076920901,11.2042931127,96.8850324329\O,0.677753008
 2,8.8355500274,99.0912488784\\Version=ES64L-G16RevC.01\State=1-A\HF=-4
 24.1737896\RMSD=5.353e-09\RMSF=4.282e-06\Dipole=-0.3477774,1.4263292,-
 0.5246071\Quadrupole=1.6604905,-7.1275747,5.4670842,-0.8301811,3.20968
 77,2.581615\PG=C01 [X(C9H10O1)]\\@
 The archive entry for this job was punched.


      SCIENCE SANS CONSCIENCE N'EST QUE RUINE DE L'AME.

                                                  -- RABELAIS
 Job cpu time:       0 days  4 hours  7 minutes 27.8 seconds.
 Elapsed time:       0 days  0 hours 16 minutes 50.5 seconds.
 File lengths (MBytes):  RWF=    138 Int=      0 D2E=      0 Chk=     13 Scr=      1
 Normal termination of Gaussian 16 at Sat Apr  1 15:40:17 2023.
