 Entering Gaussian System, Link 0=g16
 Input=rpp-vac.gjf
 Output=rpp-vac.log
 Initial command:
 /home/data/vip13t32/docs/gaussian/gaussian/g16/l1.exe "/home/data/vip13t32/Rtmp/Gau-2591848.inp" -scrdir="/home/data/vip13t32/Rtmp/"
 Entering Link 1 = /home/data/vip13t32/docs/gaussian/gaussian/g16/l1.exe PID=   2591850.
  
 Copyright (c) 1988-2019, Gaussian, Inc.  All Rights Reserved.
  
 This is part of the Gaussian(R) 16 program.  It is based on
 the Gaussian(R) 09 system (copyright 2009, Gaussian, Inc.),
 the Gaussian(R) 03 system (copyright 2003, Gaussian, Inc.),
 the Gaussian(R) 98 system (copyright 1998, Gaussian, Inc.),
 the Gaussian(R) 94 system (copyright 1995, Gaussian, Inc.),
 the Gaussian 92(TM) system (copyright 1992, Gaussian, Inc.),
 the Gaussian 90(TM) system (copyright 1990, Gaussian, Inc.),
 the Gaussian 88(TM) system (copyright 1988, Gaussian, Inc.),
 the Gaussian 86(TM) system (copyright 1986, Carnegie Mellon
 University), and the Gaussian 82(TM) system (copyright 1983,
 Carnegie Mellon University). Gaussian is a federally registered
 trademark of Gaussian, Inc.
  
 This software contains proprietary and confidential information,
 including trade secrets, belonging to Gaussian, Inc.
  
 This software is provided under written license and may be
 used, copied, transmitted, or stored only in accord with that
 written license.
  
 The following legend is applicable only to US Government
 contracts under FAR:
  
                    RESTRICTED RIGHTS LEGEND
  
 Use, reproduction and disclosure by the US Government is
 subject to restrictions as set forth in subparagraphs (a)
 and (c) of the Commercial Computer Software - Restricted
 Rights clause in FAR 52.227-19.
  
 Gaussian, Inc.
 340 Quinnipiac St., Bldg. 40, Wallingford CT 06492
  
  
 ---------------------------------------------------------------
 Warning -- This program may not be used in any manner that
 competes with the business of Gaussian, Inc. or will provide
 assistance to any competitor of Gaussian, Inc.  The licensee
 of this program is prohibited from giving any competitor of
 Gaussian, Inc. access to this program.  By using this program,
 the user acknowledges that Gaussian, Inc. is engaged in the
 business of creating and licensing software in the field of
 computational chemistry and represents and warrants to the
 licensee that it is not a competitor of Gaussian, Inc. and that
 it will not use this program in any manner prohibited above.
 ---------------------------------------------------------------
  

 Cite this work as:
 Gaussian 16, Revision C.01,
 M. J. Frisch, G. W. Trucks, H. B. Schlegel, G. E. Scuseria, 
 M. A. Robb, J. R. Cheeseman, G. Scalmani, V. Barone, 
 G. A. Petersson, H. Nakatsuji, X. Li, M. Caricato, A. V. Marenich, 
 J. Bloino, B. G. Janesko, R. Gomperts, B. Mennucci, H. P. Hratchian, 
 J. V. Ortiz, A. F. Izmaylov, J. L. Sonnenberg, D. Williams-Young, 
 F. Ding, F. Lipparini, F. Egidi, J. Goings, B. Peng, A. Petrone, 
 T. Henderson, D. Ranasinghe, V. G. Zakrzewski, J. Gao, N. Rega, 
 G. Zheng, W. Liang, M. Hada, M. Ehara, K. Toyota, R. Fukuda, 
 J. Hasegawa, M. Ishida, T. Nakajima, Y. Honda, O. Kitao, H. Nakai, 
 T. Vreven, K. Throssell, J. A. Montgomery, Jr., J. E. Peralta, 
 F. Ogliaro, M. J. Bearpark, J. J. Heyd, E. N. Brothers, K. N. Kudin, 
 V. N. Staroverov, T. A. Keith, R. Kobayashi, J. Normand, 
 K. Raghavachari, A. P. Rendell, J. C. Burant, S. S. Iyengar, 
 J. Tomasi, M. Cossi, J. M. Millam, M. Klene, C. Adamo, R. Cammi, 
 J. W. Ochterski, R. L. Martin, K. Morokuma, O. Farkas, 
 J. B. Foresman, and D. J. Fox, Gaussian, Inc., Wallingford CT, 2019.
 
 ******************************************
 Gaussian 16:  ES64L-G16RevC.01  3-Jul-2019
                 1-Apr-2023 
 ******************************************
 %mem=40GB
 %chk=/home/data/vip13t32/docs/g16out/mol_for_md/RPP/RPP_Gaussian/vac.chk
 %nprocshared=20
 Will use up to   20 processors via shared memory.
 --------------------
 # opt m062x/def2tzvp
 --------------------
 1/18=20,19=15,26=3,38=1/1,3;
 2/9=110,12=2,17=6,18=5,40=1/2;
 3/5=44,7=101,11=2,25=1,30=1,71=1,74=-55/1,2,3;
 4//1;
 5/5=2,38=5/2;
 6/7=2,8=2,9=2,10=2,28=1/1;
 7//1,2,3,16;
 1/18=20,19=15,26=3/3(2);
 2/9=110/2;
 99//99;
 2/9=110/2;
 3/5=44,7=101,11=2,25=1,30=1,71=1,74=-55/1,2,3;
 4/5=5,16=3,69=1/1;
 5/5=2,38=5/2;
 7//1,2,3,16;
 1/18=20,19=15,26=3/3(-5);
 2/9=110/2;
 6/7=2,8=2,9=2,10=2,19=2,28=1/1;
 99/9=1/99;
 -------------------
 Title Card Required
 -------------------
 Symbolic Z-matrix:
 Charge =  0 Multiplicity = 1
 C                     1.64592   13.3973   100.76082 
 C                     1.55126   12.2218   100.03812 
 C                     0.99816   12.22074   98.76271 
 C                     0.54122   13.41601   98.22508 
 C                     0.63881   14.59317   98.94673 
 C                     1.19027   14.58616   100.21612 
 H                     2.07519   13.38547   101.75178 
 H                     1.90725   11.29508   100.4653 
 H                     0.10821   13.42772   97.23472 
 C                     0.9226    10.9317   97.97943 
 H                     0.23936   11.07584   97.13267 
 C                     2.29676   10.50907   97.45934 
 H                     2.21817   9.56446   96.92699 
 H                     2.9867    10.37706   98.28875 
 H                     1.2639    15.50402   100.78014 
 H                     0.28111   15.51716   98.51684 
 C                     0.30416   9.86074   98.84438 
 H                    -0.65698   10.17697   99.29916 
 H                     2.69629   11.26567   96.78874 
 O                     0.76165   8.77385   99.05219 
 

 GradGradGradGradGradGradGradGradGradGradGradGradGradGradGradGradGradGrad
 Berny optimization.
 Initialization pass.
                           ----------------------------
                           !    Initial Parameters    !
                           ! (Angstroms and Degrees)  !
 --------------------------                            --------------------------
 ! Name  Definition              Value          Derivative Info.                !
 --------------------------------------------------------------------------------
 ! R1    R(1,2)                  1.3831         estimate D2E/DX2                !
 ! R2    R(1,6)                  1.3848         estimate D2E/DX2                !
 ! R3    R(1,7)                  1.08           estimate D2E/DX2                !
 ! R4    R(2,3)                  1.3902         estimate D2E/DX2                !
 ! R5    R(2,8)                  1.0807         estimate D2E/DX2                !
 ! R6    R(3,4)                  1.388          estimate D2E/DX2                !
 ! R7    R(3,10)                 1.5103         estimate D2E/DX2                !
 ! R8    R(4,5)                  1.3842         estimate D2E/DX2                !
 ! R9    R(4,9)                  1.0809         estimate D2E/DX2                !
 ! R10   R(5,6)                  1.384          estimate D2E/DX2                !
 ! R11   R(5,16)                 1.08           estimate D2E/DX2                !
 ! R12   R(6,15)                 1.0798         estimate D2E/DX2                !
 ! R13   R(10,11)                1.0975         estimate D2E/DX2                !
 ! R14   R(10,12)                1.5289         estimate D2E/DX2                !
 ! R15   R(10,17)                1.5092         estimate D2E/DX2                !
 ! R16   R(12,13)                1.0871         estimate D2E/DX2                !
 ! R17   R(12,14)                1.0869         estimate D2E/DX2                !
 ! R18   R(12,19)                1.0871         estimate D2E/DX2                !
 ! R19   R(17,18)                1.1093         estimate D2E/DX2                !
 ! R20   R(17,20)                1.1974         estimate D2E/DX2                !
 ! A1    A(2,1,6)              120.1045         estimate D2E/DX2                !
 ! A2    A(2,1,7)              119.8228         estimate D2E/DX2                !
 ! A3    A(6,1,7)              120.0726         estimate D2E/DX2                !
 ! A4    A(1,2,3)              120.481          estimate D2E/DX2                !
 ! A5    A(1,2,8)              119.9794         estimate D2E/DX2                !
 ! A6    A(3,2,8)              119.5396         estimate D2E/DX2                !
 ! A7    A(2,3,4)              119.0578         estimate D2E/DX2                !
 ! A8    A(2,3,10)             119.761          estimate D2E/DX2                !
 ! A9    A(4,3,10)             121.1748         estimate D2E/DX2                !
 ! A10   A(3,4,5)              120.4772         estimate D2E/DX2                !
 ! A11   A(3,4,9)              119.7416         estimate D2E/DX2                !
 ! A12   A(5,4,9)              119.7811         estimate D2E/DX2                !
 ! A13   A(4,5,6)              120.129          estimate D2E/DX2                !
 ! A14   A(4,5,16)             119.7806         estimate D2E/DX2                !
 ! A15   A(6,5,16)             120.0903         estimate D2E/DX2                !
 ! A16   A(1,6,5)              119.7502         estimate D2E/DX2                !
 ! A17   A(1,6,15)             120.122          estimate D2E/DX2                !
 ! A18   A(5,6,15)             120.1277         estimate D2E/DX2                !
 ! A19   A(3,10,11)            108.6138         estimate D2E/DX2                !
 ! A20   A(3,10,12)            111.5561         estimate D2E/DX2                !
 ! A21   A(3,10,17)            109.2051         estimate D2E/DX2                !
 ! A22   A(11,10,12)           109.4738         estimate D2E/DX2                !
 ! A23   A(11,10,17)           106.2764         estimate D2E/DX2                !
 ! A24   A(12,10,17)           111.5382         estimate D2E/DX2                !
 ! A25   A(10,12,13)           109.9869         estimate D2E/DX2                !
 ! A26   A(10,12,14)           110.153          estimate D2E/DX2                !
 ! A27   A(10,12,19)           110.3516         estimate D2E/DX2                !
 ! A28   A(13,12,14)           108.3023         estimate D2E/DX2                !
 ! A29   A(13,12,19)           109.2224         estimate D2E/DX2                !
 ! A30   A(14,12,19)           108.7819         estimate D2E/DX2                !
 ! A31   A(10,17,18)           112.8125         estimate D2E/DX2                !
 ! A32   A(10,17,20)           125.947          estimate D2E/DX2                !
 ! A33   A(18,17,20)           121.2402         estimate D2E/DX2                !
 ! D1    D(6,1,2,3)             -0.0869         estimate D2E/DX2                !
 ! D2    D(6,1,2,8)           -179.9823         estimate D2E/DX2                !
 ! D3    D(7,1,2,3)            179.8425         estimate D2E/DX2                !
 ! D4    D(7,1,2,8)             -0.0529         estimate D2E/DX2                !
 ! D5    D(2,1,6,5)              0.0632         estimate D2E/DX2                !
 ! D6    D(2,1,6,15)           179.9913         estimate D2E/DX2                !
 ! D7    D(7,1,6,5)           -179.8661         estimate D2E/DX2                !
 ! D8    D(7,1,6,15)             0.062          estimate D2E/DX2                !
 ! D9    D(1,2,3,4)             -0.0489         estimate D2E/DX2                !
 ! D10   D(1,2,3,10)           179.0419         estimate D2E/DX2                !
 ! D11   D(8,2,3,4)            179.8469         estimate D2E/DX2                !
 ! D12   D(8,2,3,10)            -1.0623         estimate D2E/DX2                !
 ! D13   D(2,3,4,5)              0.2095         estimate D2E/DX2                !
 ! D14   D(2,3,4,9)           -179.9354         estimate D2E/DX2                !
 ! D15   D(10,3,4,5)          -178.868          estimate D2E/DX2                !
 ! D16   D(10,3,4,9)             0.9871         estimate D2E/DX2                !
 ! D17   D(2,3,10,11)          165.63           estimate D2E/DX2                !
 ! D18   D(2,3,10,12)          -73.6207         estimate D2E/DX2                !
 ! D19   D(2,3,10,17)           50.1312         estimate D2E/DX2                !
 ! D20   D(4,3,10,11)          -15.2989         estimate D2E/DX2                !
 ! D21   D(4,3,10,12)          105.4504         estimate D2E/DX2                !
 ! D22   D(4,3,10,17)         -130.7977         estimate D2E/DX2                !
 ! D23   D(3,4,5,6)             -0.2349         estimate D2E/DX2                !
 ! D24   D(3,4,5,16)           179.9013         estimate D2E/DX2                !
 ! D25   D(9,4,5,6)            179.9101         estimate D2E/DX2                !
 ! D26   D(9,4,5,16)             0.0463         estimate D2E/DX2                !
 ! D27   D(4,5,6,1)              0.0968         estimate D2E/DX2                !
 ! D28   D(4,5,6,15)          -179.8313         estimate D2E/DX2                !
 ! D29   D(16,5,6,1)           179.9602         estimate D2E/DX2                !
 ! D30   D(16,5,6,15)            0.0321         estimate D2E/DX2                !
 ! D31   D(3,10,12,13)         178.2447         estimate D2E/DX2                !
 ! D32   D(3,10,12,14)          58.9415         estimate D2E/DX2                !
 ! D33   D(3,10,12,19)         -61.1863         estimate D2E/DX2                !
 ! D34   D(11,10,12,13)        -61.51           estimate D2E/DX2                !
 ! D35   D(11,10,12,14)        179.1868         estimate D2E/DX2                !
 ! D36   D(11,10,12,19)         59.0591         estimate D2E/DX2                !
 ! D37   D(17,10,12,13)         55.8225         estimate D2E/DX2                !
 ! D38   D(17,10,12,14)        -63.4807         estimate D2E/DX2                !
 ! D39   D(17,10,12,19)        176.3916         estimate D2E/DX2                !
 ! D40   D(3,10,17,18)          51.6476         estimate D2E/DX2                !
 ! D41   D(3,10,17,20)        -128.174          estimate D2E/DX2                !
 ! D42   D(11,10,17,18)        -65.3412         estimate D2E/DX2                !
 ! D43   D(11,10,17,20)        114.8372         estimate D2E/DX2                !
 ! D44   D(12,10,17,18)        175.4101         estimate D2E/DX2                !
 ! D45   D(12,10,17,20)         -4.4115         estimate D2E/DX2                !
 --------------------------------------------------------------------------------
 Trust Radius=3.00D-01 FncErr=1.00D-07 GrdErr=1.00D-06 EigMax=2.50D+02 EigMin=1.00D-04
 Number of steps in this run=    108 maximum allowed number of steps=    120.
 GradGradGradGradGradGradGradGradGradGradGradGradGradGradGradGradGradGrad

                          Input orientation:                          
 ---------------------------------------------------------------------
 Center     Atomic      Atomic             Coordinates (Angstroms)
 Number     Number       Type             X           Y           Z
 ---------------------------------------------------------------------
      1          6           0        1.645922   13.397303  100.760818
      2          6           0        1.551264   12.221804  100.038118
      3          6           0        0.998155   12.220741   98.762714
      4          6           0        0.541218   13.416011   98.225081
      5          6           0        0.638809   14.593175   98.946732
      6          6           0        1.190269   14.586158  100.216116
      7          1           0        2.075186   13.385469  101.751781
      8          1           0        1.907245   11.295080  100.465296
      9          1           0        0.108209   13.427719   97.234720
     10          6           0        0.922598   10.931701   97.979432
     11          1           0        0.239359   11.075842   97.132665
     12          6           0        2.296758   10.509066   97.459340
     13          1           0        2.218175    9.564461   96.926989
     14          1           0        2.986700   10.377061   98.288748
     15          1           0        1.263902   15.504021  100.780138
     16          1           0        0.281115   15.517160   98.516836
     17          6           0        0.304158    9.860736   98.844376
     18          1           0       -0.656982   10.176968   99.299165
     19          1           0        2.696286   11.265674   96.788741
     20          8           0        0.761654    8.773850   99.052193
 ---------------------------------------------------------------------
                    Distance matrix (angstroms):
                    1          2          3          4          5
     1  C    0.000000
     2  C    1.383131   0.000000
     3  C    2.407555   1.390175   0.000000
     4  C    2.765987   2.394457   1.387988   0.000000
     5  C    2.394847   2.765338   2.406540   1.384204   0.000000
     6  C    1.384810   2.398368   2.782891   2.398902   1.384013
     7  H    1.080007   2.136645   3.383949   3.845985   3.374911
     8  H    2.138916   1.080750   2.140579   3.373861   3.846088
     9  H    3.846928   3.375749   2.140926   1.080948   2.137946
    10  C    3.786621   2.509537   1.510252   2.525389   3.797709
    11  H    4.531125   3.387621   2.131577   2.600169   3.977691
    12  C    4.434552   3.184231   2.512963   3.481179   4.651997
    13  H    5.451274   4.145523   3.451688   4.396778   5.644619
    14  H    4.126824   2.919563   2.752837   3.901237   4.870437
    15  H    2.141162   3.377294   3.862713   3.377925   2.140504
    16  H    3.375196   3.845380   3.382452   2.137196   1.080049
    17  C    4.240328   2.924882   2.461285   3.616587   4.745360
    18  H    4.220231   3.098992   2.684076   3.616730   4.615860
    19  H    4.628661   3.575431   2.773512   3.366205   4.467930
    20  O    5.007758   3.672046   3.467101   4.720420   5.821577
                    6          7          8          9         10
     6  C    0.000000
     7  H    2.140794   0.000000
     8  H    3.377475   2.460279   0.000000
     9  H    3.376619   4.926928   4.268641   0.000000
    10  C    4.292954   4.645433   2.698350   2.729089   0.000000
    11  H    4.768041   5.480955   3.733140   2.357740   1.097545
    12  C    5.044483   5.171830   3.131342   3.654961   1.528866
    13  H    6.090351   6.156229   3.951118   4.412642   2.157660
    14  H    4.965723   4.676962   2.597179   4.324720   2.159588
    15  H    1.079822   2.467900   4.269449   4.268096   5.372760
    16  H    2.140298   4.269387   4.926130   2.457536   4.661195
    17  C    4.999647   4.900335   2.693439   3.918259   1.509160
    18  H    4.867657   4.875915   3.030725   3.926172   2.192348
    19  H    5.004058   5.432408   3.760386   3.401688   2.162232
    20  O    5.943177   5.502742   3.108994   5.038720   2.415169
                   11         12         13         14         15
    11  H    0.000000
    12  C    2.158899   0.000000
    13  H    2.498457   1.087130   0.000000
    14  H    3.061488   1.086905   1.762197   0.000000
    15  H    5.827736   6.086383   7.143932   5.954895   0.000000
    16  H    4.652201   5.501102   6.458672   5.813161   2.467505
    17  C    2.100151   2.511795   2.725365   2.787714   6.042760
    18  H    2.511000   3.495686   3.777420   3.786476   5.853252
    19  H    2.488134   1.087097   1.772520   1.767483   5.995545
    20  O    3.042458   2.811530   2.694997   2.846747   6.966581
                   16         17         18         19         20
    16  H    0.000000
    17  C    5.665946   0.000000
    18  H    5.478112   1.109335   0.000000
    19  H    5.185991   3.452790   4.328038   0.000000
    20  O    6.781575   1.197419   2.010538   3.882680   0.000000
 Stoichiometry    C9H10O
 Framework group  C1[X(C9H10O)]
 Deg. of freedom    54
 Full point group                 C1      NOp   1
 Largest Abelian subgroup         C1      NOp   1
 Largest concise Abelian subgroup C1      NOp   1
                         Standard orientation:                         
 ---------------------------------------------------------------------
 Center     Atomic      Atomic             Coordinates (Angstroms)
 Number     Number       Type             X           Y           Z
 ---------------------------------------------------------------------
      1          6           0        1.867161    1.341352    0.420517
      2          6           0        0.534769    0.976016    0.354834
      3          6           0        0.172266   -0.293222   -0.081300
      4          6           0        1.166416   -1.188505   -0.450953
      5          6           0        2.500094   -0.824364   -0.382205
      6          6           0        2.853142    0.441263    0.052578
      7          1           0        2.136687    2.331067    0.758505
      8          1           0       -0.233080    1.680179    0.642206
      9          1           0        0.896958   -2.177965   -0.792728
     10          6           0       -1.286304   -0.682364   -0.126039
     11          1           0       -1.386869   -1.596086   -0.725711
     12          6           0       -1.845261   -0.928472    1.275542
     13          1           0       -2.902131   -1.176106    1.215909
     14          1           0       -1.738042   -0.034121    1.883820
     15          1           0        3.893432    0.726232    0.103613
     16          1           0        3.264550   -1.530507   -0.671123
     17          6           0       -2.063622    0.387996   -0.852448
     18          1           0       -1.626942    0.641139   -1.840301
     19          1           0       -1.312936   -1.745016    1.756861
     20          8           0       -3.047949    0.937873   -0.449276
 ---------------------------------------------------------------------
 Rotational constants (GHZ):           2.9682783           0.8447028           0.7643633
 Standard basis: def2TZVP (5D, 7F)
 There are   420 symmetry adapted cartesian basis functions of A   symmetry.
 There are   370 symmetry adapted basis functions of A   symmetry.
   370 basis functions,   590 primitive gaussians,   420 cartesian basis functions
    36 alpha electrons       36 beta electrons
       nuclear repulsion energy       488.6225733148 Hartrees.
 NAtoms=   20 NActive=   20 NUniq=   20 SFac= 1.00D+00 NAtFMM=   60 NAOKFM=F Big=F
 Integral buffers will be    131072 words long.
 Raffenetti 2 integral format.
 Two-electron integral symmetry is turned on.
 One-electron integrals computed using PRISM.
   1 Symmetry operations used in ECPInt.
 ECPInt:  NShTT=   11325 NPrTT=   34180 LenC2=   10946 LenP2D=   25966.
 LDataN:  DoStor=T MaxTD1= 6 Len=  172
 NBasis=   370 RedAO= T EigKep=  7.86D-06  NBF=   370
 NBsUse=   370 1.00D-06 EigRej= -1.00D+00 NBFU=   370
 ExpMin= 9.52D-02 ExpMax= 2.70D+04 ExpMxC= 9.22D+02 IAcc=3 IRadAn=         5 AccDes= 0.00D+00
 Harris functional with IExCor= 1009 and IRadAn=       5 diagonalized for initial guess.
 HarFok:  IExCor= 1009 AccDes= 0.00D+00 IRadAn=         5 IDoV= 1 UseB2=F ITyADJ=14
 ICtDFT=  3500011 ScaDFX=  1.000000  1.000000  1.000000  1.000000
 FoFCou: FMM=F IPFlag=           0 FMFlag=      100000 FMFlg1=           0
         NFxFlg=           0 DoJE=T BraDBF=F KetDBF=T FulRan=T
         wScrn=  0.000000 ICntrl=       500 IOpCl=  0 I1Cent=   200000004 NGrid=           0
         NMat0=    1 NMatS0=      1 NMatT0=    0 NMatD0=    1 NMtDS0=    0 NMtDT0=    0
 Petite list used in FoFCou.
 Requested convergence on RMS density matrix=1.00D-08 within 128 cycles.
 Requested convergence on MAX density matrix=1.00D-06.
 Requested convergence on             energy=1.00D-06.
 No special actions if energy rises.
 Integral accuracy reduced to 1.0D-05 until final iterations.
 Initial convergence to 1.0D-05 achieved.  Increase integral accuracy.
 SCF Done:  E(RM062X) =  -424.165990110     A.U. after   15 cycles
            NFock= 15  Conv=0.64D-08     -V/T= 2.0046

 **********************************************************************

            Population analysis using the SCF Density.

 **********************************************************************

 Orbital symmetries:
       Occupied  (A) (A) (A) (A) (A) (A) (A) (A) (A) (A) (A) (A)
                 (A) (A) (A) (A) (A) (A) (A) (A) (A) (A) (A) (A)
                 (A) (A) (A) (A) (A) (A) (A) (A) (A) (A) (A) (A)
       Virtual   (A) (A) (A) (A) (A) (A) (A) (A) (A) (A) (A) (A)
                 (A) (A) (A) (A) (A) (A) (A) (A) (A) (A) (A) (A)
                 (A) (A) (A) (A) (A) (A) (A) (A) (A) (A) (A) (A)
                 (A) (A) (A) (A) (A) (A) (A) (A) (A) (A) (A) (A)
                 (A) (A) (A) (A) (A) (A) (A) (A) (A) (A) (A) (A)
                 (A) (A) (A) (A) (A) (A) (A) (A) (A) (A) (A) (A)
                 (A) (A) (A) (A) (A) (A) (A) (A) (A) (A) (A) (A)
                 (A) (A) (A) (A) (A) (A) (A) (A) (A) (A) (A) (A)
                 (A) (A) (A) (A) (A) (A) (A) (A) (A) (A) (A) (A)
                 (A) (A) (A) (A) (A) (A) (A) (A) (A) (A) (A) (A)
                 (A) (A) (A) (A) (A) (A) (A) (A) (A) (A) (A) (A)
                 (A) (A) (A) (A) (A) (A) (A) (A) (A) (A) (A) (A)
                 (A) (A) (A) (A) (A) (A) (A) (A) (A) (A) (A) (A)
                 (A) (A) (A) (A) (A) (A) (A) (A) (A) (A) (A) (A)
                 (A) (A) (A) (A) (A) (A) (A) (A) (A) (A) (A) (A)
                 (A) (A) (A) (A) (A) (A) (A) (A) (A) (A) (A) (A)
                 (A) (A) (A) (A) (A) (A) (A) (A) (A) (A) (A) (A)
                 (A) (A) (A) (A) (A) (A) (A) (A) (A) (A) (A) (A)
                 (A) (A) (A) (A) (A) (A) (A) (A) (A) (A) (A) (A)
                 (A) (A) (A) (A) (A) (A) (A) (A) (A) (A) (A) (A)
                 (A) (A) (A) (A) (A) (A) (A) (A) (A) (A) (A) (A)
                 (A) (A) (A) (A) (A) (A) (A) (A) (A) (A) (A) (A)
                 (A) (A) (A) (A) (A) (A) (A) (A) (A) (A) (A) (A)
                 (A) (A) (A) (A) (A) (A) (A) (A) (A) (A) (A) (A)
                 (A) (A) (A) (A) (A) (A) (A) (A) (A) (A) (A) (A)
                 (A) (A) (A) (A) (A) (A) (A) (A) (A) (A) (A) (A)
                 (A) (A) (A) (A) (A) (A) (A) (A) (A) (A) (A) (A)
                 (A) (A) (A) (A) (A) (A) (A) (A) (A) (A)
 The electronic state is 1-A.
 Alpha  occ. eigenvalues --  -19.63300 -10.62962 -10.55984 -10.55931 -10.54882
 Alpha  occ. eigenvalues --  -10.54864 -10.54802 -10.54772 -10.54643 -10.53047
 Alpha  occ. eigenvalues --   -1.18360  -0.98098  -0.91345  -0.85486  -0.83203
 Alpha  occ. eigenvalues --   -0.76292  -0.70466  -0.69099  -0.63932  -0.60372
 Alpha  occ. eigenvalues --   -0.57429  -0.54947  -0.53479  -0.51871  -0.51007
 Alpha  occ. eigenvalues --   -0.49617  -0.46869  -0.45942  -0.45012  -0.44180
 Alpha  occ. eigenvalues --   -0.42880  -0.40749  -0.40018  -0.33554  -0.31905
 Alpha  occ. eigenvalues --   -0.30917
 Alpha virt. eigenvalues --    0.00250   0.01181   0.02969   0.07090   0.08574
 Alpha virt. eigenvalues --    0.09289   0.10874   0.11764   0.12165   0.13094
 Alpha virt. eigenvalues --    0.14294   0.15038   0.16100   0.16844   0.18489
 Alpha virt. eigenvalues --    0.19075   0.21019   0.21843   0.23299   0.23403
 Alpha virt. eigenvalues --    0.24661   0.24888   0.26017   0.26662   0.27672
 Alpha virt. eigenvalues --    0.27869   0.29418   0.29940   0.30576   0.32138
 Alpha virt. eigenvalues --    0.33299   0.35522   0.36640   0.36732   0.37881
 Alpha virt. eigenvalues --    0.38681   0.39160   0.39579   0.40220   0.41759
 Alpha virt. eigenvalues --    0.42381   0.43221   0.43627   0.44251   0.45062
 Alpha virt. eigenvalues --    0.45646   0.46488   0.47152   0.47692   0.48748
 Alpha virt. eigenvalues --    0.49330   0.50531   0.52153   0.53308   0.53343
 Alpha virt. eigenvalues --    0.53838   0.54420   0.56156   0.59159   0.59738
 Alpha virt. eigenvalues --    0.62248   0.62760   0.63638   0.64520   0.67682
 Alpha virt. eigenvalues --    0.68681   0.69497   0.71243   0.73022   0.73899
 Alpha virt. eigenvalues --    0.74434   0.76085   0.77929   0.78316   0.81208
 Alpha virt. eigenvalues --    0.82397   0.83652   0.85063   0.86793   0.88794
 Alpha virt. eigenvalues --    0.90286   0.91539   0.91706   0.92383   0.94850
 Alpha virt. eigenvalues --    0.95929   0.97103   0.98790   1.03614   1.04325
 Alpha virt. eigenvalues --    1.05353   1.07575   1.07863   1.09917   1.10983
 Alpha virt. eigenvalues --    1.13011   1.14369   1.15515   1.18219   1.20629
 Alpha virt. eigenvalues --    1.22728   1.23703   1.24465   1.25084   1.27118
 Alpha virt. eigenvalues --    1.27205   1.28589   1.29350   1.32080   1.32898
 Alpha virt. eigenvalues --    1.36149   1.37346   1.40897   1.43144   1.44387
 Alpha virt. eigenvalues --    1.47878   1.48979   1.49184   1.51037   1.52112
 Alpha virt. eigenvalues --    1.53209   1.54374   1.56295   1.58315   1.59086
 Alpha virt. eigenvalues --    1.61130   1.61884   1.62645   1.63587   1.65092
 Alpha virt. eigenvalues --    1.66141   1.66480   1.68238   1.71112   1.72081
 Alpha virt. eigenvalues --    1.72851   1.74444   1.74901   1.75881   1.77419
 Alpha virt. eigenvalues --    1.80807   1.84076   1.88368   1.89257   1.89579
 Alpha virt. eigenvalues --    1.93709   1.96125   1.96525   1.99304   2.00862
 Alpha virt. eigenvalues --    2.01258   2.05077   2.07417   2.08535   2.09490
 Alpha virt. eigenvalues --    2.11328   2.13221   2.14367   2.17616   2.18720
 Alpha virt. eigenvalues --    2.20188   2.21517   2.25092   2.25441   2.26871
 Alpha virt. eigenvalues --    2.28675   2.30885   2.32434   2.34013   2.37615
 Alpha virt. eigenvalues --    2.39735   2.40871   2.43245   2.44231   2.46869
 Alpha virt. eigenvalues --    2.48883   2.51213   2.53544   2.55505   2.56965
 Alpha virt. eigenvalues --    2.57445   2.58849   2.60452   2.62298   2.63679
 Alpha virt. eigenvalues --    2.65007   2.65730   2.66888   2.68268   2.69572
 Alpha virt. eigenvalues --    2.70320   2.70718   2.71810   2.72919   2.75028
 Alpha virt. eigenvalues --    2.76835   2.77365   2.78307   2.80700   2.80911
 Alpha virt. eigenvalues --    2.82238   2.83989   2.84262   2.85345   2.87205
 Alpha virt. eigenvalues --    2.88332   2.90761   2.91979   2.94950   2.97505
 Alpha virt. eigenvalues --    2.98341   2.99610   3.02176   3.04783   3.05063
 Alpha virt. eigenvalues --    3.06081   3.07829   3.11274   3.12228   3.13099
 Alpha virt. eigenvalues --    3.13729   3.14949   3.15174   3.16438   3.17213
 Alpha virt. eigenvalues --    3.18493   3.18986   3.20412   3.22272   3.22599
 Alpha virt. eigenvalues --    3.24488   3.26588   3.28422   3.30051   3.30535
 Alpha virt. eigenvalues --    3.31831   3.33123   3.33551   3.35491   3.37673
 Alpha virt. eigenvalues --    3.38970   3.39740   3.41710   3.43914   3.45147
 Alpha virt. eigenvalues --    3.45842   3.47669   3.47978   3.49172   3.51263
 Alpha virt. eigenvalues --    3.52849   3.53883   3.55128   3.57252   3.58536
 Alpha virt. eigenvalues --    3.59646   3.60705   3.63153   3.67405   3.69220
 Alpha virt. eigenvalues --    3.71962   3.73541   3.75916   3.79320   3.80769
 Alpha virt. eigenvalues --    3.87142   3.91002   3.92413   3.93169   3.96334
 Alpha virt. eigenvalues --    3.97113   4.00605   4.02501   4.03574   4.04797
 Alpha virt. eigenvalues --    4.09393   4.10358   4.13942   4.15677   4.16700
 Alpha virt. eigenvalues --    4.18238   4.20213   4.22350   4.24131   4.24572
 Alpha virt. eigenvalues --    4.28128   4.30063   4.31781   4.34174   4.39065
 Alpha virt. eigenvalues --    4.42001   4.44721   4.51767   4.53152   4.59864
 Alpha virt. eigenvalues --    4.63152   4.64318   4.65998   4.68560   4.72976
 Alpha virt. eigenvalues --    4.81033   4.83887   4.85460   4.89072   4.92564
 Alpha virt. eigenvalues --    5.04529   5.18653   5.20064   5.20920   5.21889
 Alpha virt. eigenvalues --    5.31880   5.34373   5.43130   5.57883   5.59991
 Alpha virt. eigenvalues --    5.68917   6.12906   6.33959   6.36787   6.41162
 Alpha virt. eigenvalues --    6.47607   6.80260   6.94005   7.06950  22.14961
 Alpha virt. eigenvalues --   22.50722  22.67305  22.74086  22.81651  22.84953
 Alpha virt. eigenvalues --   22.94117  22.98168  23.34801  43.99724
          Condensed to atoms (all electrons):
               1          2          3          4          5          6
     1  C    4.911572   0.491184  -0.049345  -0.061584  -0.031604   0.508082
     2  C    0.491184   5.088877   0.437565  -0.028338  -0.062968  -0.028144
     3  C   -0.049345   0.437565   5.189868   0.465787  -0.049619  -0.053964
     4  C   -0.061584  -0.028338   0.465787   5.011943   0.503143  -0.030646
     5  C   -0.031604  -0.062968  -0.049619   0.503143   4.889967   0.518801
     6  C    0.508082  -0.028144  -0.053964  -0.030646   0.518801   4.890214
     7  H    0.405851  -0.028701   0.004502   0.000697   0.003007  -0.030841
     8  H   -0.013967   0.395484  -0.048017   0.004418  -0.000754   0.003185
     9  H   -0.001625   0.009785  -0.035373   0.398951  -0.026095   0.004234
    10  C    0.015044  -0.057543   0.072890  -0.056512   0.014885  -0.004264
    11  H   -0.000996   0.014493  -0.095286   0.003041   0.000319   0.000456
    12  C    0.002027  -0.026035   0.002155  -0.002058  -0.001197  -0.000046
    13  H   -0.000063   0.001157   0.014144  -0.000653   0.000049   0.000000
    14  H    0.000883   0.001124  -0.026969   0.002936   0.000009   0.000008
    15  H   -0.031546   0.003782   0.001274   0.003116  -0.031376   0.407845
    16  H    0.004545  -0.000589   0.006846  -0.036241   0.411982  -0.033067
    17  C   -0.000829  -0.008092   0.019170  -0.004277  -0.002274   0.000671
    18  H   -0.001370  -0.000109   0.027227   0.002698  -0.000295   0.000124
    19  H   -0.000275  -0.000626   0.005980  -0.002632  -0.000546  -0.000009
    20  O    0.000060   0.001409  -0.000615  -0.000683   0.000033   0.000011
               7          8          9         10         11         12
     1  C    0.405851  -0.013967  -0.001625   0.015044  -0.000996   0.002027
     2  C   -0.028701   0.395484   0.009785  -0.057543   0.014493  -0.026035
     3  C    0.004502  -0.048017  -0.035373   0.072890  -0.095286   0.002155
     4  C    0.000697   0.004418   0.398951  -0.056512   0.003041  -0.002058
     5  C    0.003007  -0.000754  -0.026095   0.014885   0.000319  -0.001197
     6  C   -0.030841   0.003185   0.004234  -0.004264   0.000456  -0.000046
     7  H    0.505910  -0.002911   0.000073  -0.000076   0.000003   0.000026
     8  H   -0.002911   0.466276  -0.000200   0.009593   0.000772  -0.003465
     9  H    0.000073  -0.000200   0.510788  -0.005728   0.002091  -0.000133
    10  C   -0.000076   0.009593  -0.005728   5.954746   0.452512   0.154385
    11  H    0.000003   0.000772   0.002091   0.452512   0.546670  -0.039180
    12  C    0.000026  -0.003465  -0.000133   0.154385  -0.039180   5.063412
    13  H   -0.000002  -0.000009  -0.000023  -0.043876  -0.003278   0.414881
    14  H    0.000005   0.000549  -0.000054   0.003096   0.006406   0.404462
    15  H   -0.003818  -0.000255  -0.000281   0.000026  -0.000003   0.000002
    16  H   -0.000275   0.000060  -0.003858  -0.000180  -0.000079   0.000015
    17  C   -0.000080   0.003355   0.000436   0.089670  -0.041800  -0.022567
    18  H    0.000001   0.001534   0.000238  -0.210320   0.003853   0.017168
    19  H    0.000005   0.000039   0.000457  -0.051207  -0.005100   0.415441
    20  O   -0.000007   0.003239  -0.000005  -0.137550   0.003314   0.026503
              13         14         15         16         17         18
     1  C   -0.000063   0.000883  -0.031546   0.004545  -0.000829  -0.001370
     2  C    0.001157   0.001124   0.003782  -0.000589  -0.008092  -0.000109
     3  C    0.014144  -0.026969   0.001274   0.006846   0.019170   0.027227
     4  C   -0.000653   0.002936   0.003116  -0.036241  -0.004277   0.002698
     5  C    0.000049   0.000009  -0.031376   0.411982  -0.002274  -0.000295
     6  C    0.000000   0.000008   0.407845  -0.033067   0.000671   0.000124
     7  H   -0.000002   0.000005  -0.003818  -0.000275  -0.000080   0.000001
     8  H   -0.000009   0.000549  -0.000255   0.000060   0.003355   0.001534
     9  H   -0.000023  -0.000054  -0.000281  -0.003858   0.000436   0.000238
    10  C   -0.043876   0.003096   0.000026  -0.000180   0.089670  -0.210320
    11  H   -0.003278   0.006406  -0.000003  -0.000079  -0.041800   0.003853
    12  C    0.414881   0.404462   0.000002   0.000015  -0.022567   0.017168
    13  H    0.512817  -0.021261   0.000000  -0.000001  -0.007754   0.000098
    14  H   -0.021261   0.518108  -0.000001  -0.000001  -0.016328   0.000062
    15  H    0.000000  -0.000001   0.510219  -0.004010   0.000005   0.000001
    16  H   -0.000001  -0.000001  -0.004010   0.511038   0.000004  -0.000003
    17  C   -0.007754  -0.016328   0.000005   0.000004   4.780202   0.482721
    18  H    0.000098   0.000062   0.000001  -0.000003   0.482721   0.617908
    19  H   -0.024524  -0.024863  -0.000000   0.000004   0.012029  -0.000073
    20  O    0.002437   0.001142   0.000000  -0.000000   0.631434  -0.054633
              19         20
     1  C   -0.000275   0.000060
     2  C   -0.000626   0.001409
     3  C    0.005980  -0.000615
     4  C   -0.002632  -0.000683
     5  C   -0.000546   0.000033
     6  C   -0.000009   0.000011
     7  H    0.000005  -0.000007
     8  H    0.000039   0.003239
     9  H    0.000457  -0.000005
    10  C   -0.051207  -0.137550
    11  H   -0.005100   0.003314
    12  C    0.415441   0.026503
    13  H   -0.024524   0.002437
    14  H   -0.024863   0.001142
    15  H   -0.000000   0.000000
    16  H    0.000004  -0.000000
    17  C    0.012029   0.631434
    18  H   -0.000073  -0.054633
    19  H    0.528712   0.000771
    20  O    0.000771   7.783633
 Mulliken charges:
               1
     1  C   -0.146043
     2  C   -0.203716
     3  C    0.111778
     4  C   -0.173106
     5  C   -0.135466
     6  C   -0.152653
     7  H    0.146630
     8  H    0.181075
     9  H    0.146324
    10  C   -0.199591
    11  H    0.151791
    12  C   -0.405798
    13  H    0.155860
    14  H    0.150687
    15  H    0.145020
    16  H    0.143809
    17  C    0.084302
    18  H    0.113170
    19  H    0.146419
    20  O   -0.260494
 Sum of Mulliken charges =  -0.00000
 Mulliken charges with hydrogens summed into heavy atoms:
               1
     1  C    0.000587
     2  C   -0.022641
     3  C    0.111778
     4  C   -0.026782
     5  C    0.008344
     6  C   -0.007633
    10  C   -0.047800
    12  C    0.047169
    17  C    0.197472
    20  O   -0.260494
 Electronic spatial extent (au):  <R**2>=           1565.4344
 Charge=             -0.0000 electrons
 Dipole moment (field-independent basis, Debye):
    X=              2.3680    Y=             -1.4586    Z=             -0.3030  Tot=              2.7977
 Quadrupole moment (field-independent basis, Debye-Ang):
   XX=            -65.3056   YY=            -56.6281   ZZ=            -60.6918
   XY=              5.3404   XZ=             -0.2334   YZ=              2.9182
 Traceless Quadrupole moment (field-independent basis, Debye-Ang):
   XX=             -4.4304   YY=              4.2471   ZZ=              0.1833
   XY=              5.3404   XZ=             -0.2334   YZ=              2.9182
 Octapole moment (field-independent basis, Debye-Ang**2):
  XXX=             44.7194  YYY=              1.1432  ZZZ=             -3.4840  XYY=              4.4473
  XXY=            -15.3701  XXZ=              0.7522  XZZ=            -11.9930  YZZ=              0.8150
  YYZ=              0.7749  XYZ=              2.1369
 Hexadecapole moment (field-independent basis, Debye-Ang**3):
 XXXX=          -1522.2592 YYYY=           -379.1710 ZZZZ=           -235.6433 XXXY=             50.9541
 XXXZ=            -13.2301 YYYX=             -0.6370 YYYZ=             14.6619 ZZZX=             10.0220
 ZZZY=             -2.7154 XXYY=           -312.3324 XXZZ=           -295.5005 YYZZ=           -103.4723
 XXYZ=             18.3052 YYXZ=              0.0174 ZZXY=             -4.2495
 N-N= 4.886225733148D+02 E-N=-1.963479621310D+03  KE= 4.222253296983D+02
   1 Symmetry operations used in ECPInt.
 ECPInt:  NShTT=   11325 NPrTT=   34180 LenC2=   10946 LenP2D=   25966.
 LDataN:  DoStor=T MaxTD1= 7 Len=  274
 Calling FoFJK, ICntrl=      2127 FMM=F ISym2X=0 I1Cent= 0 IOpClX= 0 NMat=1 NMatS=1 NMatT=0.
 ***** Axes restored to original set *****
 -------------------------------------------------------------------
 Center     Atomic                   Forces (Hartrees/Bohr)
 Number     Number              X              Y              Z
 -------------------------------------------------------------------
      1        6           0.001064677   -0.000007608    0.002096039
      2        6          -0.000514130    0.000206751   -0.000524765
      3        6          -0.002856249   -0.001635861   -0.002200528
      4        6          -0.000160131   -0.000246192   -0.000157051
      5        6          -0.000495515    0.002128823   -0.000674169
      6        6           0.000189200    0.001858593    0.000961591
      7        1           0.000614950   -0.000000836    0.001575042
      8        1           0.001180611   -0.002461085    0.001288609
      9        1          -0.000839496   -0.000491969   -0.001819403
     10        6           0.009732287   -0.000792870   -0.002900261
     11        1          -0.000591015    0.000083280    0.001798861
     12        6          -0.004381868   -0.000772650   -0.001306455
     13        1           0.001132460   -0.001570265   -0.000561425
     14        1           0.001308876   -0.000621788    0.001225722
     15        1           0.000097950    0.001386585    0.000881750
     16        1          -0.000528606    0.001513312   -0.000608308
     17        6          -0.007391008    0.002263086    0.000698733
     18        1          -0.000331165   -0.002602975    0.001360146
     19        1           0.000644647    0.001259262   -0.000534599
     20        8           0.002123525    0.000504406   -0.000599529
 -------------------------------------------------------------------
 Cartesian Forces:  Max     0.009732287 RMS     0.002106823

 GradGradGradGradGradGradGradGradGradGradGradGradGradGradGradGradGradGrad
 Berny optimization.
 FormGI is forming the generalized inverse of G from B-inverse, IUseBI=4.
 Internal  Forces:  Max     0.005730191 RMS     0.001448842
 Search for a local minimum.
 Step number   1 out of a maximum of  108
 All quantities printed in internal units (Hartrees-Bohrs-Radians)
 Mixed Optimization -- RFO/linear search
 Second derivative matrix not updated -- first step.
 ITU=  0
     Eigenvalues ---    0.00384   0.00630   0.00645   0.00645   0.01587
     Eigenvalues ---    0.02240   0.02265   0.02273   0.02288   0.02294
     Eigenvalues ---    0.02298   0.02299   0.02303   0.04428   0.05045
     Eigenvalues ---    0.05656   0.05721   0.06658   0.16000   0.16000
     Eigenvalues ---    0.16000   0.16000   0.16000   0.16000   0.16000
     Eigenvalues ---    0.16000   0.16000   0.17695   0.18303   0.22000
     Eigenvalues ---    0.22000   0.22000   0.23477   0.24997   0.29528
     Eigenvalues ---    0.31325   0.31435   0.32671   0.33955   0.35146
     Eigenvalues ---    0.35150   0.35173   0.35880   0.35904   0.35988
     Eigenvalues ---    0.35994   0.36016   0.43410   0.43506   0.47631
     Eigenvalues ---    0.47949   0.48322   0.48458   1.06131
 RFO step:  Lambda=-9.48827488D-04 EMin= 3.84107759D-03
 Linear search not attempted -- first point.
 Iteration  1 RMS(Cart)=  0.01712081 RMS(Int)=  0.00036045
 Iteration  2 RMS(Cart)=  0.00041067 RMS(Int)=  0.00009885
 Iteration  3 RMS(Cart)=  0.00000035 RMS(Int)=  0.00009885
 Variable       Old X    -DE/DX   Delta X   Delta X   Delta X     New X
                                 (Linear)    (Quad)   (Total)
    R1        2.61374   0.00392   0.00000   0.00807   0.00807   2.62181
    R2        2.61691   0.00352   0.00000   0.00737   0.00737   2.62428
    R3        2.04092   0.00169   0.00000   0.00468   0.00468   2.04560
    R4        2.62705   0.00340   0.00000   0.00710   0.00710   2.63415
    R5        2.04232   0.00301   0.00000   0.00836   0.00836   2.05068
    R6        2.62292   0.00289   0.00000   0.00598   0.00598   2.62890
    R7        2.85396   0.00223   0.00000   0.00711   0.00711   2.86107
    R8        2.61577   0.00420   0.00000   0.00867   0.00867   2.62443
    R9        2.04270   0.00200   0.00000   0.00555   0.00555   2.04825
   R10        2.61541   0.00341   0.00000   0.00710   0.00710   2.62250
   R11        2.04100   0.00171   0.00000   0.00474   0.00474   2.04574
   R12        2.04057   0.00165   0.00000   0.00456   0.00456   2.04513
   R13        2.07406  -0.00101   0.00000  -0.00296  -0.00296   2.07110
   R14        2.88914  -0.00029   0.00000  -0.00099  -0.00099   2.88815
   R15        2.85190   0.00301   0.00000   0.00956   0.00956   2.86146
   R16        2.05438   0.00156   0.00000   0.00442   0.00442   2.05880
   R17        2.05395   0.00184   0.00000   0.00522   0.00522   2.05917
   R18        2.05432   0.00144   0.00000   0.00410   0.00410   2.05841
   R19        2.09634   0.00010   0.00000   0.00031   0.00031   2.09665
   R20        2.26279   0.00025   0.00000   0.00024   0.00024   2.26303
    A1        2.09622  -0.00007   0.00000  -0.00023  -0.00022   2.09599
    A2        2.09130   0.00006   0.00000   0.00029   0.00029   2.09159
    A3        2.09566   0.00001   0.00000  -0.00007  -0.00007   2.09560
    A4        2.10279   0.00068   0.00000   0.00285   0.00285   2.10564
    A5        2.09404  -0.00054   0.00000  -0.00264  -0.00264   2.09139
    A6        2.08636  -0.00015   0.00000  -0.00020  -0.00021   2.08615
    A7        2.07795  -0.00092   0.00000  -0.00409  -0.00410   2.07385
    A8        2.09022   0.00045   0.00000   0.00195   0.00195   2.09217
    A9        2.11490   0.00047   0.00000   0.00205   0.00204   2.11694
   A10        2.10272   0.00076   0.00000   0.00318   0.00318   2.10591
   A11        2.08988  -0.00089   0.00000  -0.00477  -0.00477   2.08512
   A12        2.09058   0.00013   0.00000   0.00158   0.00158   2.09215
   A13        2.09665  -0.00013   0.00000  -0.00051  -0.00051   2.09613
   A14        2.09057   0.00016   0.00000   0.00085   0.00085   2.09142
   A15        2.09597  -0.00003   0.00000  -0.00034  -0.00034   2.09563
   A16        2.09004  -0.00032   0.00000  -0.00121  -0.00121   2.08882
   A17        2.09653   0.00015   0.00000   0.00050   0.00050   2.09703
   A18        2.09662   0.00018   0.00000   0.00071   0.00071   2.09733
   A19        1.89567  -0.00108   0.00000  -0.01374  -0.01379   1.88187
   A20        1.94702   0.00206   0.00000   0.01925   0.01917   1.96619
   A21        1.90599  -0.00051   0.00000   0.00226   0.00205   1.90804
   A22        1.91068   0.00010   0.00000   0.00185   0.00192   1.91260
   A23        1.85487  -0.00048   0.00000  -0.01672  -0.01674   1.83813
   A24        1.94671  -0.00026   0.00000   0.00480   0.00467   1.95137
   A25        1.91963   0.00175   0.00000   0.01223   0.01222   1.93185
   A26        1.92253   0.00008   0.00000  -0.00120  -0.00121   1.92132
   A27        1.92600  -0.00042   0.00000  -0.00225  -0.00227   1.92373
   A28        1.89023  -0.00101   0.00000  -0.00699  -0.00699   1.88325
   A29        1.90629  -0.00032   0.00000   0.00131   0.00129   1.90758
   A30        1.89860  -0.00012   0.00000  -0.00333  -0.00334   1.89526
   A31        1.96895   0.00573   0.00000   0.03110   0.03057   1.99952
   A32        2.19819  -0.00527   0.00000  -0.02388  -0.02441   2.17378
   A33        2.11604  -0.00046   0.00000  -0.00738  -0.00792   2.10812
    D1       -0.00152   0.00002   0.00000   0.00033   0.00033  -0.00119
    D2       -3.14128  -0.00013   0.00000  -0.00573  -0.00573   3.13618
    D3        3.13884   0.00003   0.00000   0.00089   0.00089   3.13974
    D4       -0.00092  -0.00012   0.00000  -0.00517  -0.00516  -0.00609
    D5        0.00110   0.00003   0.00000   0.00103   0.00103   0.00213
    D6        3.14144  -0.00000   0.00000   0.00001   0.00001   3.14145
    D7       -3.13926   0.00002   0.00000   0.00046   0.00047  -3.13879
    D8        0.00108  -0.00001   0.00000  -0.00056  -0.00056   0.00053
    D9       -0.00085  -0.00008   0.00000  -0.00253  -0.00253  -0.00338
   D10        3.12487  -0.00019   0.00000  -0.00912  -0.00911   3.11576
   D11        3.13892   0.00006   0.00000   0.00350   0.00351  -3.14076
   D12       -0.01854  -0.00004   0.00000  -0.00309  -0.00308  -0.02162
   D13        0.00366   0.00010   0.00000   0.00341   0.00342   0.00707
   D14       -3.14047   0.00006   0.00000   0.00153   0.00153  -3.13893
   D15       -3.12183   0.00021   0.00000   0.01010   0.01010  -3.11174
   D16        0.01723   0.00016   0.00000   0.00822   0.00821   0.02544
   D17        2.89079  -0.00056   0.00000   0.00572   0.00579   2.89657
   D18       -1.28492   0.00015   0.00000   0.01102   0.01096  -1.27397
   D19        0.87496   0.00087   0.00000   0.03188   0.03190   0.90685
   D20       -0.26702  -0.00068   0.00000  -0.00107  -0.00102  -0.26803
   D21        1.84046   0.00003   0.00000   0.00423   0.00415   1.84461
   D22       -2.28285   0.00075   0.00000   0.02509   0.02509  -2.25776
   D23       -0.00410  -0.00006   0.00000  -0.00210  -0.00211  -0.00621
   D24        3.13987  -0.00004   0.00000  -0.00158  -0.00159   3.13828
   D25        3.14002  -0.00001   0.00000  -0.00021  -0.00021   3.13981
   D26        0.00081   0.00000   0.00000   0.00031   0.00031   0.00112
   D27        0.00169  -0.00001   0.00000  -0.00015  -0.00016   0.00153
   D28       -3.13865   0.00002   0.00000   0.00086   0.00086  -3.13778
   D29        3.14090  -0.00002   0.00000  -0.00067  -0.00068   3.14022
   D30        0.00056   0.00001   0.00000   0.00034   0.00034   0.00090
   D31        3.11096   0.00007   0.00000   0.01726   0.01728   3.12824
   D32        1.02872   0.00017   0.00000   0.01899   0.01902   1.04775
   D33       -1.06790   0.00054   0.00000   0.02535   0.02538  -1.04252
   D34       -1.07355   0.00011   0.00000   0.01360   0.01362  -1.05993
   D35        3.12740   0.00021   0.00000   0.01533   0.01536  -3.14043
   D36        1.03078   0.00058   0.00000   0.02169   0.02171   1.05249
   D37        0.97429  -0.00057   0.00000  -0.00295  -0.00300   0.97129
   D38       -1.10795  -0.00047   0.00000  -0.00121  -0.00126  -1.10921
   D39        3.07861  -0.00010   0.00000   0.00514   0.00509   3.08371
   D40        0.90142  -0.00128   0.00000  -0.01675  -0.01671   0.88472
   D41       -2.23706  -0.00083   0.00000   0.04372   0.04374  -2.19332
   D42       -1.14042   0.00049   0.00000   0.00726   0.00725  -1.13316
   D43        2.00429   0.00094   0.00000   0.06772   0.06770   2.07199
   D44        3.06148   0.00081   0.00000   0.01265   0.01264   3.07412
   D45       -0.07699   0.00126   0.00000   0.07311   0.07308  -0.00391
         Item               Value     Threshold  Converged?
 Maximum Force            0.005730     0.000450     NO 
 RMS     Force            0.001449     0.000300     NO 
 Maximum Displacement     0.081230     0.001800     NO 
 RMS     Displacement     0.017149     0.001200     NO 
 Predicted change in Energy=-4.831979D-04
 GradGradGradGradGradGradGradGradGradGradGradGradGradGradGradGradGradGrad

                          Input orientation:                          
 ---------------------------------------------------------------------
 Center     Atomic      Atomic             Coordinates (Angstroms)
 Number     Number       Type             X           Y           Z
 ---------------------------------------------------------------------
      1          6           0        1.650399   13.407702  100.766522
      2          6           0        1.555166   12.228090  100.042415
      3          6           0        0.997347   12.221633   98.764977
      4          6           0        0.533518   13.418945   98.229619
      5          6           0        0.631504   14.602020   98.950361
      6          6           0        1.189465   14.598699  100.221020
      7          1           0        2.084358   13.397439  101.758160
      8          1           0        1.921306   11.300719  100.470809
      9          1           0        0.095576   13.425516   97.238168
     10          6           0        0.932636   10.930512   97.976907
     11          1           0        0.248620   11.085470   97.134721
     12          6           0        2.299537   10.491696   97.452642
     13          1           0        2.218225    9.554483   96.903132
     14          1           0        2.986159   10.334076   98.283955
     15          1           0        1.263157   15.519381  100.785063
     16          1           0        0.269018   15.526636   98.519520
     17          6           0        0.284845    9.857136   98.826079
     18          1           0       -0.680370   10.153063   99.286273
     19          1           0        2.715584   11.257288   96.798982
     20          8           0        0.773948    8.789497   99.060674
 ---------------------------------------------------------------------
                    Distance matrix (angstroms):
                    1          2          3          4          5
     1  C    0.000000
     2  C    1.387402   0.000000
     3  C    2.416489   1.393934   0.000000
     4  C    2.771900   2.397526   1.391152   0.000000
     5  C    2.400622   2.771512   2.415461   1.388790   0.000000
     6  C    1.388707   2.405291   2.794175   2.405777   1.387770
     7  H    1.082484   2.142709   3.394592   3.854371   3.383126
     8  H    2.144811   1.085172   2.147474   3.381682   3.856675
     9  H    3.855785   3.380537   2.143285   1.083887   2.145457
    10  C    3.799159   2.517455   1.514013   2.532875   3.810284
    11  H    4.532959   3.386344   2.123485   2.593274   3.976087
    12  C    4.461644   3.205631   2.531916   3.505895   4.681907
    13  H    5.485937   4.176472   3.474291   4.419487   5.673311
    14  H    4.170680   2.954185   2.783815   3.941423   4.919740
    15  H    2.146972   3.386649   3.876409   3.387403   2.146314
    16  H    3.383359   3.854061   3.393193   2.143914   1.082559
    17  C    4.270430   2.952052   2.470270   3.619956   4.759153
    18  H    4.268055   3.142469   2.713939   3.640883   4.650492
    19  H    4.636839   3.578950   2.783422   3.388347   4.489884
    20  O    5.000590   3.660333   3.452086   4.709591   5.815315
                    6          7          8          9         10
     6  C    0.000000
     7  H    2.146313   0.000000
     8  H    3.387427   2.465785   0.000000
     9  H    3.386792   4.938256   4.277619   0.000000
    10  C    4.307853   4.659407   2.708149   2.733395   0.000000
    11  H    4.770032   5.485555   3.738140   2.347325   1.095977
    12  C    5.075790   5.198762   3.147524   3.675695   1.528342
    13  H    6.124609   6.193345   3.983192   4.427503   2.167761
    14  H    5.016706   4.718849   2.617373   4.359603   2.160318
    15  H    1.082234   2.474658   4.281242   4.281119   5.390056
    16  H    2.145551   4.279922   4.939227   2.467114   4.675380
    17  C    5.024601   4.936506   2.732594   3.910321   1.514220
    18  H    4.912608   4.927466   3.080415   3.937737   2.218255
    19  H    5.020399   5.438027   3.757004   3.429073   2.161757
    20  O    5.938509   5.497884   3.100185   5.027364   2.404928
                   11         12         13         14         15
    11  H    0.000000
    12  C    2.158680   0.000000
    13  H    2.505374   1.089469   0.000000
    14  H    3.062589   1.089668   1.761863   0.000000
    15  H    5.832138   6.120190   7.180637   6.009298   0.000000
    16  H    4.652100   5.532798   6.486812   5.865239   2.474075
    17  C    2.090648   2.519519   2.743589   2.796152   6.070891
    18  H    2.522217   3.515212   3.799935   3.805370   5.900935
    19  H    2.495627   1.089265   1.777008   1.769372   6.013636
    20  O    3.042492   2.794758   2.706682   2.807649   6.964494
                   16         17         18         19         20
    16  H    0.000000
    17  C    5.677804   0.000000
    18  H    5.510403   1.109500   0.000000
    19  H    5.212799   3.460930   4.351831   0.000000
    20  O    6.777673   1.197544   2.006302   3.869779   0.000000
 Stoichiometry    C9H10O
 Framework group  C1[X(C9H10O)]
 Deg. of freedom    54
 Full point group                 C1      NOp   1
 Largest Abelian subgroup         C1      NOp   1
 Largest concise Abelian subgroup C1      NOp   1
                         Standard orientation:                         
 ---------------------------------------------------------------------
 Center     Atomic      Atomic             Coordinates (Angstroms)
 Number     Number       Type             X           Y           Z
 ---------------------------------------------------------------------
      1          6           0        1.878507    1.342663    0.418053
      2          6           0        0.540934    0.980169    0.351854
      3          6           0        0.170192   -0.292316   -0.079868
      4          6           0        1.165339   -1.192217   -0.447514
      5          6           0        2.505244   -0.833636   -0.378130
      6          6           0        2.864669    0.435199    0.054045
      7          1           0        2.151669    2.334920    0.753585
      8          1           0       -0.225937    1.690975    0.642133
      9          1           0        0.888718   -2.183648   -0.787155
     10          6           0       -1.292760   -0.680747   -0.113443
     11          1           0       -1.382866   -1.597623   -0.707063
     12          6           0       -1.871912   -0.914585    1.281453
     13          1           0       -2.927165   -1.178588    1.220747
     14          1           0       -1.787501   -0.007039    1.878622
     15          1           0        3.908319    0.716992    0.105187
     16          1           0        3.268750   -1.545611   -0.664635
     17          6           0       -2.072378    0.368677   -0.877489
     18          1           0       -1.650854    0.623524   -1.871652
     19          1           0       -1.329392   -1.713528    1.785297
     20          8           0       -3.030093    0.947547   -0.451104
 ---------------------------------------------------------------------
 Rotational constants (GHZ):           2.9533868           0.8403664           0.7614814
 Standard basis: def2TZVP (5D, 7F)
 There are   420 symmetry adapted cartesian basis functions of A   symmetry.
 There are   370 symmetry adapted basis functions of A   symmetry.
   370 basis functions,   590 primitive gaussians,   420 cartesian basis functions
    36 alpha electrons       36 beta electrons
       nuclear repulsion energy       487.4663085450 Hartrees.
 NAtoms=   20 NActive=   20 NUniq=   20 SFac= 1.00D+00 NAtFMM=   60 NAOKFM=F Big=F
 Integral buffers will be    131072 words long.
 Raffenetti 2 integral format.
 Two-electron integral symmetry is turned on.
 One-electron integrals computed using PRISM.
   1 Symmetry operations used in ECPInt.
 ECPInt:  NShTT=   11325 NPrTT=   34180 LenC2=   10940 LenP2D=   25948.
 LDataN:  DoStor=T MaxTD1= 6 Len=  172
 NBasis=   370 RedAO= T EigKep=  8.12D-06  NBF=   370
 NBsUse=   370 1.00D-06 EigRej= -1.00D+00 NBFU=   370
 Initial guess from the checkpoint file:  "/home/data/vip13t32/docs/g16out/mol_for_md/RPP/RPP_Gaussian/vac.chk"
 B after Tr=     0.000000    0.000000   -0.000000
         Rot=    0.999992    0.003581    0.000818    0.001467 Ang=   0.45 deg.
 ExpMin= 9.52D-02 ExpMax= 2.70D+04 ExpMxC= 9.22D+02 IAcc=3 IRadAn=         5 AccDes= 0.00D+00
 Harris functional with IExCor= 1009 and IRadAn=       5 diagonalized for initial guess.
 HarFok:  IExCor= 1009 AccDes= 0.00D+00 IRadAn=         5 IDoV= 1 UseB2=F ITyADJ=14
 ICtDFT=  3500011 ScaDFX=  1.000000  1.000000  1.000000  1.000000
 FoFCou: FMM=F IPFlag=           0 FMFlag=      100000 FMFlg1=           0
         NFxFlg=           0 DoJE=T BraDBF=F KetDBF=T FulRan=T
         wScrn=  0.000000 ICntrl=       500 IOpCl=  0 I1Cent=   200000004 NGrid=           0
         NMat0=    1 NMatS0=      1 NMatT0=    0 NMatD0=    1 NMtDS0=    0 NMtDT0=    0
 Petite list used in FoFCou.
 Requested convergence on RMS density matrix=1.00D-08 within 128 cycles.
 Requested convergence on MAX density matrix=1.00D-06.
 Requested convergence on             energy=1.00D-06.
 No special actions if energy rises.
 Integral accuracy reduced to 1.0D-05 until final iterations.
 Initial convergence to 1.0D-05 achieved.  Increase integral accuracy.
 SCF Done:  E(RM062X) =  -424.166351195     A.U. after   13 cycles
            NFock= 13  Conv=0.47D-08     -V/T= 2.0049
   1 Symmetry operations used in ECPInt.
 ECPInt:  NShTT=   11325 NPrTT=   34180 LenC2=   10940 LenP2D=   25948.
 LDataN:  DoStor=T MaxTD1= 7 Len=  274
 Calling FoFJK, ICntrl=      2127 FMM=F ISym2X=0 I1Cent= 0 IOpClX= 0 NMat=1 NMatS=1 NMatT=0.
 ***** Axes restored to original set *****
 -------------------------------------------------------------------
 Center     Atomic                   Forces (Hartrees/Bohr)
 Number     Number              X              Y              Z
 -------------------------------------------------------------------
      1        6          -0.000042432   -0.000224714   -0.000148558
      2        6           0.000107608    0.000349490   -0.000092891
      3        6          -0.000156323   -0.000262213    0.000075018
      4        6           0.000084118    0.000167849    0.000426623
      5        6          -0.000063965   -0.000274395    0.000068037
      6        6          -0.000079451   -0.000263441   -0.000259114
      7        1          -0.000074992   -0.000053915   -0.000109015
      8        1          -0.000066666    0.000080781   -0.000022182
      9        1           0.000019864   -0.000038073    0.000028908
     10        6           0.001446314   -0.000872732   -0.002959554
     11        1          -0.000315664    0.000842055   -0.000313625
     12        6          -0.001986025    0.000104022    0.000819187
     13        1           0.000011954    0.000125745    0.000229503
     14        1           0.000234155   -0.000250400    0.000041941
     15        1           0.000022687   -0.000077580   -0.000075352
     16        1           0.000043671   -0.000144068   -0.000001073
     17        6           0.001659348    0.004194627    0.005366120
     18        1          -0.000623377   -0.001302770   -0.001998872
     19        1          -0.000054461    0.000157515    0.000113106
     20        8          -0.000166364   -0.002257784   -0.001188208
 -------------------------------------------------------------------
 Cartesian Forces:  Max     0.005366120 RMS     0.001154450

 GradGradGradGradGradGradGradGradGradGradGradGradGradGradGradGradGradGrad
 Berny optimization.
 Using GEDIIS/GDIIS optimizer.
 FormGI is forming the generalized inverse of G from B-inverse, IUseBI=4.
 Internal  Forces:  Max     0.002056767 RMS     0.000491483
 Search for a local minimum.
 Step number   2 out of a maximum of  108
 All quantities printed in internal units (Hartrees-Bohrs-Radians)
 Mixed Optimization -- En-DIIS/RFO-DIIS
 Update second derivatives using D2CorX and points    1    2
 DE= -3.61D-04 DEPred=-4.83D-04 R= 7.47D-01
 TightC=F SS=  1.41D+00  RLast= 1.42D-01 DXNew= 5.0454D-01 4.2655D-01
 Trust test= 7.47D-01 RLast= 1.42D-01 DXMaxT set to 4.27D-01
 ITU=  1  0
 Use linear search instead of GDIIS.
     Eigenvalues ---    0.00376   0.00552   0.00633   0.01035   0.01596
     Eigenvalues ---    0.02244   0.02271   0.02275   0.02290   0.02295
     Eigenvalues ---    0.02298   0.02299   0.02303   0.04523   0.05178
     Eigenvalues ---    0.05607   0.05713   0.06623   0.14533   0.16000
     Eigenvalues ---    0.16000   0.16000   0.16000   0.16000   0.16000
     Eigenvalues ---    0.16000   0.16057   0.17711   0.18268   0.21172
     Eigenvalues ---    0.22000   0.22007   0.23469   0.24995   0.29478
     Eigenvalues ---    0.31209   0.31613   0.32716   0.34046   0.35041
     Eigenvalues ---    0.35154   0.35198   0.35859   0.35899   0.35991
     Eigenvalues ---    0.36008   0.36052   0.43436   0.43527   0.47624
     Eigenvalues ---    0.47962   0.48322   0.48880   1.06381
 RFO step:  Lambda=-9.81798592D-04 EMin= 3.76265520D-03
 Quartic linear search produced a step of -0.19218.
 Iteration  1 RMS(Cart)=  0.04075747 RMS(Int)=  0.00300777
 Iteration  2 RMS(Cart)=  0.00270122 RMS(Int)=  0.00137407
 Iteration  3 RMS(Cart)=  0.00001060 RMS(Int)=  0.00137404
 Iteration  4 RMS(Cart)=  0.00000001 RMS(Int)=  0.00137404
 Variable       Old X    -DE/DX   Delta X   Delta X   Delta X     New X
                                 (Linear)    (Quad)   (Total)
    R1        2.62181  -0.00059  -0.00155   0.00899   0.00744   2.62925
    R2        2.62428  -0.00021  -0.00142   0.00874   0.00733   2.63161
    R3        2.04560  -0.00013  -0.00090   0.00548   0.00459   2.05018
    R4        2.63415  -0.00037  -0.00137   0.00813   0.00677   2.64092
    R5        2.05068  -0.00010  -0.00161   0.01008   0.00848   2.05916
    R6        2.62890  -0.00041  -0.00115   0.00668   0.00553   2.63442
    R7        2.86107  -0.00070  -0.00137   0.00697   0.00560   2.86667
    R8        2.62443  -0.00058  -0.00167   0.00972   0.00805   2.63249
    R9        2.04825  -0.00003  -0.00107   0.00677   0.00571   2.05395
   R10        2.62250  -0.00033  -0.00136   0.00821   0.00685   2.62935
   R11        2.04574  -0.00014  -0.00091   0.00554   0.00463   2.05037
   R12        2.04513  -0.00010  -0.00088   0.00539   0.00451   2.04964
   R13        2.07110   0.00056   0.00057  -0.00233  -0.00176   2.06933
   R14        2.88815  -0.00206   0.00019  -0.00683  -0.00664   2.88151
   R15        2.86146   0.00040  -0.00184   0.01282   0.01098   2.87244
   R16        2.05880  -0.00022  -0.00085   0.00494   0.00409   2.06288
   R17        2.05917   0.00022  -0.00100   0.00693   0.00593   2.06510
   R18        2.05841   0.00002  -0.00079   0.00510   0.00432   2.06273
   R19        2.09665  -0.00063  -0.00006  -0.00118  -0.00124   2.09541
   R20        2.26303   0.00171  -0.00005   0.00159   0.00155   2.26458
    A1        2.09599  -0.00009   0.00004  -0.00057  -0.00052   2.09547
    A2        2.09159  -0.00001  -0.00006   0.00025   0.00019   2.09178
    A3        2.09560   0.00010   0.00001   0.00032   0.00033   2.09593
    A4        2.10564  -0.00002  -0.00055   0.00343   0.00289   2.10852
    A5        2.09139   0.00001   0.00051  -0.00324  -0.00273   2.08866
    A6        2.08615   0.00001   0.00004  -0.00022  -0.00018   2.08597
    A7        2.07385   0.00010   0.00079  -0.00473  -0.00394   2.06991
    A8        2.09217  -0.00014  -0.00037   0.00196   0.00158   2.09375
    A9        2.11694   0.00004  -0.00039   0.00266   0.00227   2.11921
   A10        2.10591  -0.00002  -0.00061   0.00383   0.00322   2.10912
   A11        2.08512  -0.00003   0.00092  -0.00602  -0.00510   2.08002
   A12        2.09215   0.00005  -0.00030   0.00218   0.00188   2.09403
   A13        2.09613  -0.00006   0.00010  -0.00084  -0.00074   2.09539
   A14        2.09142  -0.00003  -0.00016   0.00085   0.00068   2.09210
   A15        2.09563   0.00009   0.00007  -0.00001   0.00006   2.09568
   A16        2.08882   0.00008   0.00023  -0.00115  -0.00092   2.08790
   A17        2.09703  -0.00003  -0.00010   0.00049   0.00039   2.09742
   A18        2.09733  -0.00005  -0.00014   0.00066   0.00052   2.09786
   A19        1.88187  -0.00032   0.00265  -0.01888  -0.01632   1.86555
   A20        1.96619   0.00061  -0.00368   0.02398   0.02029   1.98648
   A21        1.90804  -0.00051  -0.00039  -0.00223  -0.00274   1.90530
   A22        1.91260   0.00010  -0.00037   0.00573   0.00542   1.91802
   A23        1.83813   0.00055   0.00322  -0.01474  -0.01158   1.82655
   A24        1.95137  -0.00043  -0.00090   0.00268   0.00176   1.95313
   A25        1.93185  -0.00006  -0.00235   0.01460   0.01225   1.94410
   A26        1.92132   0.00032   0.00023   0.00007   0.00029   1.92162
   A27        1.92373  -0.00023   0.00044  -0.00378  -0.00335   1.92038
   A28        1.88325  -0.00018   0.00134  -0.00985  -0.00851   1.87474
   A29        1.90758   0.00017  -0.00025   0.00251   0.00225   1.90984
   A30        1.89526  -0.00002   0.00064  -0.00398  -0.00334   1.89192
   A31        1.99952   0.00053  -0.00587   0.04538   0.03170   2.03122
   A32        2.17378  -0.00014   0.00469  -0.02723  -0.03032   2.14346
   A33        2.10812  -0.00024   0.00152  -0.00580  -0.01219   2.09594
    D1       -0.00119  -0.00001  -0.00006   0.00020   0.00014  -0.00104
    D2        3.13618   0.00004   0.00110  -0.00552  -0.00441   3.13176
    D3        3.13974  -0.00002  -0.00017   0.00034   0.00016   3.13990
    D4       -0.00609   0.00002   0.00099  -0.00539  -0.00439  -0.01048
    D5        0.00213   0.00001  -0.00020   0.00173   0.00153   0.00366
    D6        3.14145   0.00001  -0.00000   0.00046   0.00046  -3.14128
    D7       -3.13879   0.00003  -0.00009   0.00159   0.00151  -3.13728
    D8        0.00053   0.00003   0.00011   0.00033   0.00044   0.00097
    D9       -0.00338   0.00001   0.00049  -0.00289  -0.00241  -0.00579
   D10        3.11576   0.00007   0.00175  -0.00811  -0.00636   3.10940
   D11       -3.14076  -0.00003  -0.00067   0.00282   0.00215  -3.13861
   D12       -0.02162   0.00002   0.00059  -0.00240  -0.00181  -0.02342
   D13        0.00707  -0.00002  -0.00066   0.00371   0.00306   0.01013
   D14       -3.13893   0.00001  -0.00029   0.00249   0.00220  -3.13673
   D15       -3.11174  -0.00007  -0.00194   0.00902   0.00708  -3.10466
   D16        0.02544  -0.00004  -0.00158   0.00780   0.00622   0.03167
   D17        2.89657   0.00003  -0.00111   0.01345   0.01242   2.90899
   D18       -1.27397   0.00032  -0.00211   0.02279   0.02064  -1.25333
   D19        0.90685  -0.00019  -0.00613   0.04185   0.03569   0.94255
   D20       -0.26803   0.00009   0.00020   0.00800   0.00827  -0.25977
   D21        1.84461   0.00038  -0.00080   0.01734   0.01649   1.86110
   D22       -2.25776  -0.00013  -0.00482   0.03640   0.03154  -2.22621
   D23       -0.00621   0.00003   0.00041  -0.00184  -0.00144  -0.00765
   D24        3.13828   0.00000   0.00031  -0.00187  -0.00157   3.13671
   D25        3.13981  -0.00001   0.00004  -0.00060  -0.00056   3.13925
   D26        0.00112  -0.00003  -0.00006  -0.00063  -0.00069   0.00043
   D27        0.00153  -0.00002   0.00003  -0.00093  -0.00090   0.00063
   D28       -3.13778  -0.00002  -0.00017   0.00033   0.00017  -3.13762
   D29        3.14022   0.00000   0.00013  -0.00090  -0.00077   3.13945
   D30        0.00090  -0.00000  -0.00007   0.00036   0.00030   0.00120
   D31        3.12824  -0.00019  -0.00332   0.02185   0.01853  -3.13642
   D32        1.04775  -0.00013  -0.00366   0.02483   0.02117   1.06892
   D33       -1.04252  -0.00016  -0.00488   0.03210   0.02722  -1.01530
   D34       -1.05993  -0.00013  -0.00262   0.01755   0.01496  -1.04497
   D35       -3.14043  -0.00007  -0.00295   0.02053   0.01761  -3.12282
   D36        1.05249  -0.00011  -0.00417   0.02780   0.02366   1.07615
   D37        0.97129   0.00035   0.00058   0.00458   0.00512   0.97641
   D38       -1.10921   0.00041   0.00024   0.00755   0.00776  -1.10144
   D39        3.08371   0.00038  -0.00098   0.01483   0.01382   3.09752
   D40        0.88472   0.00136   0.00321   0.14204   0.14489   1.02961
   D41       -2.19332  -0.00133  -0.00841  -0.08055  -0.08854  -2.28185
   D42       -1.13316   0.00169  -0.00139   0.17266   0.17087  -0.96229
   D43        2.07199  -0.00100  -0.01301  -0.04993  -0.06256   2.00943
   D44        3.07412   0.00146  -0.00243   0.17331   0.17047  -3.03860
   D45       -0.00391  -0.00123  -0.01405  -0.04928  -0.06296  -0.06687
         Item               Value     Threshold  Converged?
 Maximum Force            0.002057     0.000450     NO 
 RMS     Force            0.000491     0.000300     NO 
 Maximum Displacement     0.202962     0.001800     NO 
 RMS     Displacement     0.040772     0.001200     NO 
 Predicted change in Energy=-5.619910D-04
 GradGradGradGradGradGradGradGradGradGradGradGradGradGradGradGradGradGrad

                          Input orientation:                          
 ---------------------------------------------------------------------
 Center     Atomic      Atomic             Coordinates (Angstroms)
 Number     Number       Type             X           Y           Z
 ---------------------------------------------------------------------
      1          6           0        1.674350   13.434911  100.769816
      2          6           0        1.579508   12.248090  100.049895
      3          6           0        1.004028   12.227358   98.776536
      4          6           0        0.519475   13.421007   98.243752
      5          6           0        0.616364   14.613202   98.957809
      6          6           0        1.194160   14.622463  100.223526
      7          1           0        2.122632   13.432848  101.757779
      8          1           0        1.965622   11.324192  100.479642
      9          1           0        0.065915   13.414851   97.256023
     10          6           0        0.948254   10.930602   97.991338
     11          1           0        0.258529   11.093585   97.156570
     12          6           0        2.303090   10.471905   97.463021
     13          1           0        2.216512    9.540071   96.901017
     14          1           0        2.988400   10.289871   98.294549
     15          1           0        1.267433   15.548743  100.783028
     16          1           0        0.238063   15.533925   98.526062
     17          6           0        0.279054    9.861749   98.839992
     18          1           0       -0.754508   10.077258   99.178870
     19          1           0        2.735332   11.243138   96.822829
     20          8           0        0.747787    8.770230   98.997945
 ---------------------------------------------------------------------
                    Distance matrix (angstroms):
                    1          2          3          4          5
     1  C    0.000000
     2  C    1.391339   0.000000
     3  C    2.425012   1.397516   0.000000
     4  C    2.777576   2.400324   1.394076   0.000000
     5  C    2.406466   2.777419   2.423921   1.393051   0.000000
     6  C    1.392585   2.411697   2.804720   2.412094   1.391393
     7  H    1.084910   2.148371   3.404745   3.862465   3.391447
     8  H    2.150390   1.089658   2.154285   3.389274   3.867048
     9  H    3.864481   3.384970   2.145264   1.086906   2.152931
    10  C    3.810344   2.524266   1.516979   2.539623   3.821748
    11  H    4.532318   3.383666   2.113173   2.582044   3.969913
    12  C    4.484375   3.220299   2.548431   3.533841   4.714847
    13  H    5.516460   4.201735   3.494167   4.443483   5.703290
    14  H    4.212476   2.983428   2.814943   3.987755   4.975707
    15  H    2.152682   3.395464   3.889343   3.396265   2.151872
    16  H    3.391639   3.862416   3.403355   2.150189   1.085011
    17  C    4.294014   2.974840   2.475019   3.616853   4.764868
    18  H    4.438952   3.304365   2.806644   3.698397   4.743727
    19  H    4.637700   3.572088   2.789816   3.416454   4.517244
    20  O    5.075165   3.727449   3.473675   4.717061   5.844588
                    6          7          8          9         10
     6  C    0.000000
     7  H    2.152016   0.000000
     8  H    3.396960   2.470772   0.000000
     9  H    3.396666   4.949365   4.286195   0.000000
    10  C    4.321223   4.671882   2.716912   2.736916   0.000000
    11  H    4.768081   5.488000   3.743014   2.331366   1.095044
    12  C    5.106589   5.219645   3.152821   3.702531   1.524829
    13  H    6.157514   6.225003   4.006569   4.445787   2.175053
    14  H    5.070662   4.756240   2.624982   4.402836   2.159785
    15  H    1.084622   2.481635   4.292591   4.293822   5.405796
    16  H    2.150877   4.290702   4.952049   2.476511   4.688378
    17  C    5.041426   4.966388   2.769784   3.896014   1.520029
    18  H    5.054453   5.117489   3.262815   3.938270   2.244510
    19  H    5.035850   5.433595   3.737821   3.468398   2.157948
    20  O    5.995826   5.589892   3.193943   5.007170   2.391789
                   11         12         13         14         15
    11  H    0.000000
    12  C    2.158849   0.000000
    13  H    2.512451   1.091631   0.000000
    14  H    3.064824   1.092806   1.760665   0.000000
    15  H    5.832453   6.153805   7.216294   6.067124   0.000000
    16  H    4.646778   5.569421   6.517770   5.926050   2.480669
    17  C    2.086085   2.522907   2.759863   2.796668   6.090499
    18  H    2.479690   3.528284   3.782082   3.851829   6.049687
    19  H    2.503657   1.091549   1.782056   1.771643   6.031263
    20  O    3.004666   2.769595   2.673372   2.797217   7.028854
                   16         17         18         19         20
    16  H    0.000000
    17  C    5.681005   0.000000
    18  H    5.584494   1.108843   0.000000
    19  H    5.248639   3.465614   4.369117   0.000000
    20  O    6.799270   1.198363   1.999486   3.846653   0.000000
 Stoichiometry    C9H10O
 Framework group  C1[X(C9H10O)]
 Deg. of freedom    54
 Full point group                 C1      NOp   1
 Largest Abelian subgroup         C1      NOp   1
 Largest concise Abelian subgroup C1      NOp   1
                         Standard orientation:                         
 ---------------------------------------------------------------------
 Center     Atomic      Atomic             Coordinates (Angstroms)
 Number     Number       Type             X           Y           Z
 ---------------------------------------------------------------------
      1          6           0        1.910299    1.344096    0.397156
      2          6           0        0.565052    0.992804    0.344915
      3          6           0        0.174192   -0.284139   -0.067029
      4          6           0        1.160984   -1.198705   -0.432076
      5          6           0        2.509650   -0.854260   -0.376853
      6          6           0        2.887300    0.419065    0.037876
      7          1           0        2.196196    2.340329    0.717800
      8          1           0       -0.193685    1.718608    0.636260
      9          1           0        0.867307   -2.193032   -0.758316
     10          6           0       -1.295367   -0.660338   -0.076849
     11          1           0       -1.382008   -1.589711   -0.649456
     12          6           0       -1.891710   -0.850076    1.313647
     13          1           0       -2.946955   -1.124413    1.260216
     14          1           0       -1.824224    0.081162    1.881508
     15          1           0        3.936534    0.690887    0.078204
     16          1           0        3.264747   -1.580012   -0.660331
     17          6           0       -2.067721    0.365718   -0.889970
     18          1           0       -1.760092    0.488565   -1.948179
     19          1           0       -1.342439   -1.623487    1.853661
     20          8           0       -3.066430    0.893264   -0.489534
 ---------------------------------------------------------------------
 Rotational constants (GHZ):           2.9743133           0.8259481           0.7548470
 Standard basis: def2TZVP (5D, 7F)
 There are   420 symmetry adapted cartesian basis functions of A   symmetry.
 There are   370 symmetry adapted basis functions of A   symmetry.
   370 basis functions,   590 primitive gaussians,   420 cartesian basis functions
    36 alpha electrons       36 beta electrons
       nuclear repulsion energy       485.9765319431 Hartrees.
 NAtoms=   20 NActive=   20 NUniq=   20 SFac= 1.00D+00 NAtFMM=   60 NAOKFM=F Big=F
 Integral buffers will be    131072 words long.
 Raffenetti 2 integral format.
 Two-electron integral symmetry is turned on.
 One-electron integrals computed using PRISM.
   1 Symmetry operations used in ECPInt.
 ECPInt:  NShTT=   11325 NPrTT=   34180 LenC2=   10929 LenP2D=   25904.
 LDataN:  DoStor=T MaxTD1= 6 Len=  172
 NBasis=   370 RedAO= T EigKep=  8.37D-06  NBF=   370
 NBsUse=   370 1.00D-06 EigRej= -1.00D+00 NBFU=   370
[...]
 Deg. of freedom    54
 Full point group                 C1      NOp   1
 Largest Abelian subgroup         C1      NOp   1
 Largest concise Abelian subgroup C1      NOp   1
                         Standard orientation:                         
 ---------------------------------------------------------------------
 Center     Atomic      Atomic             Coordinates (Angstroms)
 Number     Number       Type             X           Y           Z
 ---------------------------------------------------------------------
      1          6           0        1.868625    1.345749    0.397829
      2          6           0        0.533748    0.972832    0.359068
      3          6           0        0.165914   -0.308904   -0.046632
      4          6           0        1.161086   -1.206074   -0.418642
      5          6           0        2.498889   -0.836573   -0.377839
      6          6           0        2.855463    0.440169    0.030729
      7          1           0        2.139379    2.345140    0.712928
      8          1           0       -0.234144    1.683383    0.646004
      9          1           0        0.886354   -2.204386   -0.738857
     10          6           0       -1.297088   -0.702504   -0.062655
     11          1           0       -1.375244   -1.663866   -0.583191
     12          6           0       -1.897148   -0.812405    1.333474
     13          1           0       -2.948197   -1.093619    1.279733
     14          1           0       -1.837478    0.146361    1.848050
     15          1           0        3.897563    0.730086    0.061051
     16          1           0        3.262424   -1.547232   -0.666788
     17          6           0       -2.051741    0.293080   -0.920044
     18          1           0       -1.677650    0.390203   -1.958437
     19          1           0       -1.355594   -1.554796    1.918556
     20          8           0       -2.972988    0.957062   -0.536346
 ---------------------------------------------------------------------
 Rotational constants (GHZ):           2.9236127           0.8443390           0.7715859

 **********************************************************************

            Population analysis using the SCF Density.

 **********************************************************************

 Orbital symmetries:
       Occupied  (A) (A) (A) (A) (A) (A) (A) (A) (A) (A) (A) (A)
                 (A) (A) (A) (A) (A) (A) (A) (A) (A) (A) (A) (A)
                 (A) (A) (A) (A) (A) (A) (A) (A) (A) (A) (A) (A)
       Virtual   (A) (A) (A) (A) (A) (A) (A) (A) (A) (A) (A) (A)
                 (A) (A) (A) (A) (A) (A) (A) (A) (A) (A) (A) (A)
                 (A) (A) (A) (A) (A) (A) (A) (A) (A) (A) (A) (A)
                 (A) (A) (A) (A) (A) (A) (A) (A) (A) (A) (A) (A)
                 (A) (A) (A) (A) (A) (A) (A) (A) (A) (A) (A) (A)
                 (A) (A) (A) (A) (A) (A) (A) (A) (A) (A) (A) (A)
                 (A) (A) (A) (A) (A) (A) (A) (A) (A) (A) (A) (A)
                 (A) (A) (A) (A) (A) (A) (A) (A) (A) (A) (A) (A)
                 (A) (A) (A) (A) (A) (A) (A) (A) (A) (A) (A) (A)
                 (A) (A) (A) (A) (A) (A) (A) (A) (A) (A) (A) (A)
                 (A) (A) (A) (A) (A) (A) (A) (A) (A) (A) (A) (A)
                 (A) (A) (A) (A) (A) (A) (A) (A) (A) (A) (A) (A)
                 (A) (A) (A) (A) (A) (A) (A) (A) (A) (A) (A) (A)
                 (A) (A) (A) (A) (A) (A) (A) (A) (A) (A) (A) (A)
                 (A) (A) (A) (A) (A) (A) (A) (A) (A) (A) (A) (A)
                 (A) (A) (A) (A) (A) (A) (A) (A) (A) (A) (A) (A)
                 (A) (A) (A) (A) (A) (A) (A) (A) (A) (A) (A) (A)
                 (A) (A) (A) (A) (A) (A) (A) (A) (A) (A) (A) (A)
                 (A) (A) (A) (A) (A) (A) (A) (A) (A) (A) (A) (A)
                 (A) (A) (A) (A) (A) (A) (A) (A) (A) (A) (A) (A)
                 (A) (A) (A) (A) (A) (A) (A) (A) (A) (A) (A) (A)
                 (A) (A) (A) (A) (A) (A) (A) (A) (A) (A) (A) (A)
                 (A) (A) (A) (A) (A) (A) (A) (A) (A) (A) (A) (A)
                 (A) (A) (A) (A) (A) (A) (A) (A) (A) (A) (A) (A)
                 (A) (A) (A) (A) (A) (A) (A) (A) (A) (A) (A) (A)
                 (A) (A) (A) (A) (A) (A) (A) (A) (A) (A) (A) (A)
                 (A) (A) (A) (A) (A) (A) (A) (A) (A) (A) (A) (A)
                 (A) (A) (A) (A) (A) (A) (A) (A) (A) (A)
 The electronic state is 1-A.
 Alpha  occ. eigenvalues --  -19.63168 -10.62950 -10.56073 -10.55998 -10.55003
 Alpha  occ. eigenvalues --  -10.54952 -10.54922 -10.54850 -10.54769 -10.53090
 Alpha  occ. eigenvalues --   -1.18237  -0.97864  -0.91162  -0.85313  -0.83143
 Alpha  occ. eigenvalues --   -0.76172  -0.70269  -0.69019  -0.63952  -0.60125
 Alpha  occ. eigenvalues --   -0.57505  -0.54791  -0.53272  -0.51885  -0.50910
 Alpha  occ. eigenvalues --   -0.49485  -0.46857  -0.45701  -0.44977  -0.44029
 Alpha  occ. eigenvalues --   -0.42847  -0.40643  -0.39985  -0.33647  -0.31811
 Alpha  occ. eigenvalues --   -0.30809
 Alpha virt. eigenvalues --    0.00099   0.01070   0.03322   0.07027   0.08569
 Alpha virt. eigenvalues --    0.09215   0.10979   0.11768   0.12213   0.13230
 Alpha virt. eigenvalues --    0.14249   0.15024   0.16061   0.16875   0.18517
 Alpha virt. eigenvalues --    0.18945   0.20987   0.21718   0.23241   0.23500
 Alpha virt. eigenvalues --    0.24397   0.24666   0.25725   0.26739   0.27689
 Alpha virt. eigenvalues --    0.27956   0.29111   0.29874   0.30476   0.32006
 Alpha virt. eigenvalues --    0.33217   0.35652   0.36624   0.36668   0.37648
 Alpha virt. eigenvalues --    0.38509   0.39060   0.39411   0.40413   0.41827
 Alpha virt. eigenvalues --    0.42161   0.43443   0.43562   0.44245   0.44947
 Alpha virt. eigenvalues --    0.46125   0.46412   0.46899   0.47685   0.48982
 Alpha virt. eigenvalues --    0.49157   0.50589   0.52251   0.53025   0.53344
 Alpha virt. eigenvalues --    0.53895   0.54792   0.56081   0.58506   0.59098
 Alpha virt. eigenvalues --    0.62119   0.62465   0.63728   0.65306   0.67735
 Alpha virt. eigenvalues --    0.68616   0.69615   0.70917   0.72649   0.73474
 Alpha virt. eigenvalues --    0.74333   0.75885   0.77902   0.78272   0.80545
 Alpha virt. eigenvalues --    0.82249   0.82948   0.84796   0.86978   0.88180
 Alpha virt. eigenvalues --    0.90281   0.91220   0.91634   0.92538   0.95037
 Alpha virt. eigenvalues --    0.96061   0.98090   0.98763   1.04008   1.04442
 Alpha virt. eigenvalues --    1.05196   1.07179   1.08032   1.09698   1.11161
 Alpha virt. eigenvalues --    1.12988   1.14015   1.16356   1.17985   1.20087
 Alpha virt. eigenvalues --    1.22342   1.23504   1.24237   1.24708   1.26584
 Alpha virt. eigenvalues --    1.27290   1.28854   1.29224   1.31650   1.32490
 Alpha virt. eigenvalues --    1.36348   1.37589   1.40379   1.43439   1.44212
 Alpha virt. eigenvalues --    1.47522   1.48993   1.49720   1.50988   1.52691
 Alpha virt. eigenvalues --    1.53049   1.54407   1.56074   1.58084   1.59409
 Alpha virt. eigenvalues --    1.60678   1.61432   1.62756   1.64359   1.64700
 Alpha virt. eigenvalues --    1.66099   1.66452   1.68540   1.70734   1.72121
 Alpha virt. eigenvalues --    1.72780   1.74295   1.74628   1.75751   1.77237
 Alpha virt. eigenvalues --    1.80703   1.83706   1.88279   1.89576   1.89958
 Alpha virt. eigenvalues --    1.93316   1.96186   1.96667   1.98925   2.00607
 Alpha virt. eigenvalues --    2.01432   2.03929   2.07086   2.07885   2.09618
 Alpha virt. eigenvalues --    2.11299   2.12984   2.15456   2.17157   2.18851
 Alpha virt. eigenvalues --    2.20002   2.21192   2.24105   2.25176   2.26570
 Alpha virt. eigenvalues --    2.29039   2.30810   2.32137   2.34031   2.37346
 Alpha virt. eigenvalues --    2.39917   2.40354   2.43503   2.44270   2.46728
 Alpha virt. eigenvalues --    2.49446   2.51837   2.53436   2.55354   2.56859
 Alpha virt. eigenvalues --    2.57221   2.58564   2.60968   2.62134   2.62729
 Alpha virt. eigenvalues --    2.64495   2.66026   2.66620   2.67890   2.69120
 Alpha virt. eigenvalues --    2.69944   2.70678   2.71749   2.72359   2.74501
 Alpha virt. eigenvalues --    2.77104   2.77627   2.77912   2.80093   2.80328
 Alpha virt. eigenvalues --    2.81900   2.83215   2.83636   2.84112   2.86563
 Alpha virt. eigenvalues --    2.88403   2.89477   2.92433   2.94343   2.97065
 Alpha virt. eigenvalues --    2.98329   2.99281   3.02558   3.04305   3.04607
 Alpha virt. eigenvalues --    3.06511   3.07942   3.09935   3.12488   3.12504
 Alpha virt. eigenvalues --    3.13577   3.14366   3.14824   3.16039   3.17088
 Alpha virt. eigenvalues --    3.18308   3.19286   3.19899   3.22329   3.23200
 Alpha virt. eigenvalues --    3.24384   3.26252   3.27459   3.30134   3.30720
 Alpha virt. eigenvalues --    3.31661   3.32075   3.33422   3.35933   3.37199
 Alpha virt. eigenvalues --    3.38919   3.39538   3.41977   3.43325   3.44385
 Alpha virt. eigenvalues --    3.44971   3.47276   3.47582   3.48898   3.51139
 Alpha virt. eigenvalues --    3.53478   3.53853   3.55074   3.57570   3.58211
 Alpha virt. eigenvalues --    3.59020   3.60026   3.62968   3.66963   3.69713
 Alpha virt. eigenvalues --    3.72160   3.72943   3.75089   3.78444   3.80236
 Alpha virt. eigenvalues --    3.86863   3.89569   3.91676   3.92295   3.95718
 Alpha virt. eigenvalues --    3.96678   4.00959   4.01524   4.02967   4.04172
 Alpha virt. eigenvalues --    4.08442   4.10195   4.12692   4.14341   4.16479
 Alpha virt. eigenvalues --    4.17467   4.19262   4.21374   4.23527   4.24688
 Alpha virt. eigenvalues --    4.27191   4.29056   4.30877   4.32617   4.38528
 Alpha virt. eigenvalues --    4.42412   4.43403   4.51198   4.53059   4.60172
 Alpha virt. eigenvalues --    4.62324   4.64099   4.65013   4.68274   4.72061
 Alpha virt. eigenvalues --    4.80370   4.82873   4.84396   4.89721   4.91633
 Alpha virt. eigenvalues --    5.04060   5.17003   5.18834   5.20991   5.21973
 Alpha virt. eigenvalues --    5.31504   5.34381   5.41888   5.57242   5.60002
 Alpha virt. eigenvalues --    5.68445   6.12287   6.33398   6.37331   6.40553
 Alpha virt. eigenvalues --    6.47692   6.80544   6.94387   7.06537  22.15017
 Alpha virt. eigenvalues --   22.50706  22.65718  22.72221  22.80536  22.82311
 Alpha virt. eigenvalues --   22.92269  22.97756  23.32747  43.99570
          Condensed to atoms (all electrons):
               1          2          3          4          5          6
     1  C    4.911043   0.490313  -0.044096  -0.060869  -0.031690   0.503872
     2  C    0.490313   5.091080   0.428306  -0.025499  -0.062978  -0.025506
     3  C   -0.044096   0.428306   5.183461   0.475956  -0.049937  -0.055473
     4  C   -0.060869  -0.025499   0.475956   4.993637   0.504371  -0.031183
     5  C   -0.031690  -0.062978  -0.049937   0.504371   4.889842   0.519295
     6  C    0.503872  -0.025506  -0.055473  -0.031183   0.519295   4.893956
     7  H    0.406169  -0.029100   0.004500   0.000661   0.002974  -0.031142
     8  H   -0.015434   0.393460  -0.046043   0.004500  -0.000762   0.003380
     9  H   -0.001642   0.010103  -0.035534   0.398207  -0.025993   0.004258
    10  C    0.014528  -0.063168   0.109561  -0.054648   0.015486  -0.004361
    11  H   -0.000993   0.015935  -0.097658   0.002788   0.000524   0.000453
    12  C    0.002166  -0.022532  -0.003683  -0.002270  -0.001260  -0.000071
    13  H   -0.000072   0.001211   0.014201  -0.000601   0.000033   0.000006
    14  H    0.000981   0.003816  -0.030362   0.002055   0.000011   0.000024
    15  H   -0.031225   0.003626   0.001253   0.003103  -0.031335   0.407268
    16  H    0.004618  -0.000651   0.006934  -0.036137   0.411571  -0.033362
    17  C   -0.000023  -0.009891   0.010622  -0.005301  -0.002044   0.000423
    18  H   -0.001368   0.003405   0.018288   0.001996  -0.000407   0.000176
    19  H   -0.000294  -0.002258   0.006511  -0.000884  -0.000441  -0.000026
    20  O    0.000100   0.001439  -0.003991  -0.000547   0.000039   0.000009
               7          8          9         10         11         12
     1  C    0.406169  -0.015434  -0.001642   0.014528  -0.000993   0.002166
     2  C   -0.029100   0.393460   0.010103  -0.063168   0.015935  -0.022532
     3  C    0.004500  -0.046043  -0.035534   0.109561  -0.097658  -0.003683
     4  C    0.000661   0.004500   0.398207  -0.054648   0.002788  -0.002270
     5  C    0.002974  -0.000762  -0.025993   0.015486   0.000524  -0.001260
     6  C   -0.031142   0.003380   0.004258  -0.004361   0.000453  -0.000071
     7  H    0.505841  -0.003034   0.000071   0.000016   0.000003   0.000013
     8  H   -0.003034   0.467402  -0.000199   0.007273   0.000760  -0.003592
     9  H    0.000071  -0.000199   0.512317  -0.006515   0.002391   0.000223
    10  C    0.000016   0.007273  -0.006515   5.861839   0.451542   0.165858
    11  H    0.000003   0.000760   0.002391   0.451542   0.553211  -0.039401
    12  C    0.000013  -0.003592   0.000223   0.165858  -0.039401   5.060758
    13  H   -0.000002  -0.000004  -0.000018  -0.044246  -0.003901   0.414973
    14  H    0.000004   0.000379  -0.000056   0.008549   0.006612   0.400710
    15  H   -0.003694  -0.000255  -0.000275   0.000032  -0.000003   0.000001
    16  H   -0.000272   0.000058  -0.003779  -0.000179  -0.000084   0.000014
    17  C   -0.000085   0.003100   0.000195   0.128077  -0.043258  -0.026313
    18  H   -0.000016   0.002161   0.000252  -0.190914   0.004708   0.016503
    19  H    0.000005   0.000143   0.000366  -0.054986  -0.005218   0.418812
    20  O   -0.000006   0.004289  -0.000005  -0.137552   0.004508   0.027157
              13         14         15         16         17         18
     1  C   -0.000072   0.000981  -0.031225   0.004618  -0.000023  -0.001368
     2  C    0.001211   0.003816   0.003626  -0.000651  -0.009891   0.003405
     3  C    0.014201  -0.030362   0.001253   0.006934   0.010622   0.018288
     4  C   -0.000601   0.002055   0.003103  -0.036137  -0.005301   0.001996
     5  C    0.000033   0.000011  -0.031335   0.411571  -0.002044  -0.000407
     6  C    0.000006   0.000024   0.407268  -0.033362   0.000423   0.000176
     7  H   -0.000002   0.000004  -0.003694  -0.000272  -0.000085  -0.000016
     8  H   -0.000004   0.000379  -0.000255   0.000058   0.003100   0.002161
     9  H   -0.000018  -0.000056  -0.000275  -0.003779   0.000195   0.000252
    10  C   -0.044246   0.008549   0.000032  -0.000179   0.128077  -0.190914
    11  H   -0.003901   0.006612  -0.000003  -0.000084  -0.043258   0.004708
    12  C    0.414973   0.400710   0.000001   0.000014  -0.026313   0.016503
    13  H    0.514043  -0.021761   0.000000  -0.000000  -0.005653  -0.000036
    14  H   -0.021761   0.517273  -0.000001  -0.000001  -0.017580   0.000025
    15  H    0.000000  -0.000001   0.509913  -0.003951   0.000003   0.000000
    16  H   -0.000000  -0.000001  -0.003951   0.510876  -0.000001  -0.000006
    17  C   -0.005653  -0.017580   0.000003  -0.000001   4.762307   0.472928
    18  H   -0.000036   0.000025   0.000000  -0.000006   0.472928   0.614192
    19  H   -0.024099  -0.024799  -0.000001   0.000003   0.011582  -0.000055
    20  O    0.000868   0.001903  -0.000000  -0.000000   0.623997  -0.054411
              19         20
     1  C   -0.000294   0.000100
     2  C   -0.002258   0.001439
     3  C    0.006511  -0.003991
     4  C   -0.000884  -0.000547
     5  C   -0.000441   0.000039
     6  C   -0.000026   0.000009
     7  H    0.000005  -0.000006
     8  H    0.000143   0.004289
     9  H    0.000366  -0.000005
    10  C   -0.054986  -0.137552
    11  H   -0.005218   0.004508
    12  C    0.418812   0.027157
    13  H   -0.024099   0.000868
    14  H   -0.024799   0.001903
    15  H   -0.000001  -0.000000
    16  H    0.000003  -0.000000
    17  C    0.011582   0.623997
    18  H   -0.000055  -0.054411
    19  H    0.527062   0.000794
    20  O    0.000794   7.795174
 Mulliken charges:
               1
     1  C   -0.146085
     2  C   -0.201110
     3  C    0.107187
     4  C   -0.169333
     5  C   -0.137301
     6  C   -0.151997
     7  H    0.147093
     8  H    0.182419
     9  H    0.145632
    10  C   -0.206192
    11  H    0.147081
    12  C   -0.408065
    13  H    0.155058
    14  H    0.152215
    15  H    0.145538
    16  H    0.144351
    17  C    0.096916
    18  H    0.112579
    19  H    0.147781
    20  O   -0.263767
 Sum of Mulliken charges =  -0.00000
 Mulliken charges with hydrogens summed into heavy atoms:
               1
     1  C    0.001008
     2  C   -0.018691
     3  C    0.107187
     4  C   -0.023701
     5  C    0.007050
     6  C   -0.006459
    10  C   -0.059111
    12  C    0.046989
    17  C    0.209495
    20  O   -0.263767
 Electronic spatial extent (au):  <R**2>=           1563.8071
 Charge=             -0.0000 electrons
 Dipole moment (field-independent basis, Debye):
    X=              2.2440    Y=             -1.5802    Z=             -0.2267  Tot=              2.7539
 Quadrupole moment (field-independent basis, Debye-Ang):
   XX=            -64.4520   YY=            -56.8200   ZZ=            -60.7215
   XY=              5.6456   XZ=             -0.6783   YZ=              3.0373
 Traceless Quadrupole moment (field-independent basis, Debye-Ang):
   XX=             -3.7875   YY=              3.8445   ZZ=             -0.0570
   XY=              5.6456   XZ=             -0.6783   YZ=              3.0373
 Octapole moment (field-independent basis, Debye-Ang**2):
  XXX=             41.0701  YYY=              1.3625  ZZZ=             -4.2661  XYY=              5.0888
  XXY=            -15.4263  XXZ=              1.3563  XZZ=            -12.2059  YZZ=              0.4992
  YYZ=              1.0751  XYZ=              1.3517
 Hexadecapole moment (field-independent basis, Debye-Ang**3):
 XXXX=          -1500.3078 YYYY=           -372.0699 ZZZZ=           -246.8627 XXXY=             50.4904
 XXXZ=            -17.4843 YYYX=             -0.0938 YYYZ=             14.5633 ZZZX=             11.5827
 ZZZY=             -3.7085 XXYY=           -310.3797 XXZZ=           -297.4708 YYZZ=           -105.6153
 XXYZ=             19.1749 YYXZ=             -1.0600 ZZXY=             -3.5916
 N-N= 4.879737142879D+02 E-N=-1.962136779660D+03  KE= 4.221291160896D+02
 Unable to Open any file for archive entry.
 1\1\GINC-BIO3-HORSEA-12U\FOpt\RM062X\def2TZVP\C9H10O1\VIP13T32\01-Apr-
 2023\0\\# opt m062x/def2tzvp\\Title Card Required\\0,1\C,1.6915233865,
 13.4118100707,100.7461245691\C,1.6057304089,12.2374569419,100.01400346
 25\C,1.0122206119,12.2285056791,98.7528894159\C,0.5010711365,13.417280
 1863,98.2437601688\C,0.5883415642,14.5955065527,98.9731965754\C,1.1840
 034403,14.5952385639,100.2259257329\H,2.153186351,13.403357243,101.724
 987624\H,2.0028128837,11.3149854388,100.4241782585\H,0.0345438216,13.4
 213595866,97.2655075424\C,0.9466425903,10.9384821293,97.9609985102\H,0
 .2863913052,11.1102045926,97.1031747088\C,2.3139111756,10.4655015709,9
 7.4833025609\H,2.2252989334,9.5361519539,96.9219383666\H,2.9680056472,
 10.2765134421,98.3341998124\H,1.2508581761,15.5123679915,100.796317849
 9\H,0.1892829481,15.5137364245,98.5619531371\C,0.2560591819,9.89007530
 27,98.8093754683\H,-0.7580244739,10.1683479261,99.1584245742\H,2.77539
 01591,11.2242648706,96.8523811738\O,0.7427507523,8.8388535328,99.11736
 04883\\Version=ES64L-G16RevC.01\State=1-A\HF=-424.1665436\RMSD=7.085e-
 09\RMSF=6.723e-06\Dipole=-0.1889079,1.017312,-0.3213746\Quadrupole=0.7
 021727,-4.7464383,4.0442656,-0.5798507,2.4993782,2.1793953\PG=C01 [X(C
 9H10O1)]\\@
 The archive entry for this job was punched.


 READER, WHETHER YOU BE DILETTANTE OR PROFESSOR ... SHOW YOURSELF TO BE
 MORE HUMAN THAN CRITICAL, AND THEN YOUR PLEASURE WILL INCREASE.
                                           -- DOMENICO SCARLATTI (1738)
 Job cpu time:       0 days  2 hours 57 minutes  7.4 seconds.
 Elapsed time:       0 days  0 hours 11 minutes 56.9 seconds.
 File lengths (MBytes):  RWF=     90 Int=      0 D2E=      0 Chk=     11 Scr=      1
 Normal termination of Gaussian 16 at Sat Apr  1 15:35:13 2023.
