 Entering Gaussian System, Link 0=g16
 Input=DH_DOP_water.gjf
 Output=DH_DOP_water.log
 Initial command:
 /home/data/vip13t32/docs/gaussian/gaussian/g16/l1.exe "/home/data/vip13t32/Rtmp/Gau-2623568.inp" -scrdir="/home/data/vip13t32/Rtmp/"
 Entering Link 1 = /home/data/vip13t32/docs/gaussian/gaussian/g16/l1.exe PID=   2623570.
  
 Copyright (c) 1988-2019, Gaussian, Inc.  All Rights Reserved.
  
 This is part of the Gaussian(R) 16 program.  It is based on
 the Gaussian(R) 09 system (copyright 2009, Gaussian, Inc.),
 the Gaussian(R) 03 system (copyright 2003, Gaussian, Inc.),
 the Gaussian(R) 98 system (copyright 1998, Gaussian, Inc.),
 the Gaussian(R) 94 system (copyright 1995, Gaussian, Inc.),
 the Gaussian 92(TM) system (copyright 1992, Gaussian, Inc.),
 the Gaussian 90(TM) system (copyright 1990, Gaussian, Inc.),
 the Gaussian 88(TM) system (copyright 1988, Gaussian, Inc.),
 the Gaussian 86(TM) system (copyright 1986, Carnegie Mellon
 University), and the Gaussian 82(TM) system (copyright 1983,
 Carnegie Mellon University). Gaussian is a federally registered
 trademark of Gaussian, Inc.
  
 This software contains proprietary and confidential information,
 including trade secrets, belonging to Gaussian, Inc.
  
 This software is provided under written license and may be
 used, copied, transmitted, or stored only in accord with that
 written license.
  
 The following legend is applicable only to US Government
 contracts under FAR:
  
                    RESTRICTED RIGHTS LEGEND
  
 Use, reproduction and disclosure by the US Government is
 subject to restrictions as set forth in subparagraphs (a)
 and (c) of the Commercial Computer Software - Restricted
 Rights clause in FAR 52.227-19.
  
 Gaussian, Inc.
 340 Quinnipiac St., Bldg. 40, Wallingford CT 06492
  
  
 ---------------------------------------------------------------
 Warning -- This program may not be used in any manner that
 competes with the business of Gaussian, Inc. or will provide
 assistance to any competitor of Gaussian, Inc.  The licensee
 of this program is prohibited from giving any competitor of
 Gaussian, Inc. access to this program.  By using this program,
 the user acknowledges that Gaussian, Inc. is engaged in the
 business of creating and licensing software in the field of
 computational chemistry and represents and warrants to the
 licensee that it is not a competitor of Gaussian, Inc. and that
 it will not use this program in any manner prohibited above.
 ---------------------------------------------------------------
  

 Cite this work as:
 Gaussian 16, Revision C.01,
 M. J. Frisch, G. W. Trucks, H. B. Schlegel, G. E. Scuseria, 
 M. A. Robb, J. R. Cheeseman, G. Scalmani, V. Barone, 
 G. A. Petersson, H. Nakatsuji, X. Li, M. Caricato, A. V. Marenich, 
 J. Bloino, B. G. Janesko, R. Gomperts, B. Mennucci, H. P. Hratchian, 
 J. V. Ortiz, A. F. Izmaylov, J. L. Sonnenberg, D. Williams-Young, 
 F. Ding, F. Lipparini, F. Egidi, J. Goings, B. Peng, A. Petrone, 
 T. Henderson, D. Ranasinghe, V. G. Zakrzewski, J. Gao, N. Rega, 
 G. Zheng, W. Liang, M. Hada, M. Ehara, K. Toyota, R. Fukuda, 
 J. Hasegawa, M. Ishida, T. Nakajima, Y. Honda, O. Kitao, H. Nakai, 
 T. Vreven, K. Throssell, J. A. Montgomery, Jr., J. E. Peralta, 
 F. Ogliaro, M. J. Bearpark, J. J. Heyd, E. N. Brothers, K. N. Kudin, 
 V. N. Staroverov, T. A. Keith, R. Kobayashi, J. Normand, 
 K. Raghavachari, A. P. Rendell, J. C. Burant, S. S. Iyengar, 
 J. Tomasi, M. Cossi, J. M. Millam, M. Klene, C. Adamo, R. Cammi, 
 J. W. Ochterski, R. L. Martin, K. Morokuma, O. Farkas, 
 J. B. Foresman, and D. J. Fox, Gaussian, Inc., Wallingford CT, 2019.
 
 ******************************************
 Gaussian 16:  ES64L-G16RevC.01  3-Jul-2019
                 8-Apr-2023 
 ******************************************
 %mem=50GB
 %chk=/home/data/vip13t32/docs/g16out/mol_for_md/DH_DOP/water.chk
 %nprocshared=20
 Will use up to   20 processors via shared memory.
 ---------------------------------------------
 # opt m062x/def2tzvp scrf=(smd,solvent=water)
 ---------------------------------------------
 1/18=20,19=15,26=3,38=1/1,3;
 2/9=110,12=2,17=6,18=5,40=1/2;
 3/5=44,7=101,11=2,25=1,30=1,70=32201,71=1,72=1,74=-55/1,2,3;
 4//1;
 5/5=2,38=5,53=1/2;
 6/7=2,8=2,9=2,10=2,28=1/1;
 7//1,2,3,16;
 1/18=20,19=15,26=3/3(2);
 2/9=110/2;
 99//99;
 2/9=110/2;
 3/5=44,7=101,11=2,25=1,30=1,70=32205,71=1,72=1,74=-55/1,2,3;
 4/5=5,16=3,69=1/1;
 5/5=2,38=5,53=1/2;
 7//1,2,3,16;
 1/18=20,19=15,26=3/3(-5);
 2/9=110/2;
 6/7=2,8=2,9=2,10=2,19=2,28=1/1;
 99/9=1/99;
 -------------------
 Title Card Required
 -------------------
 Symbolic Z-matrix:
 Charge = -1 Multiplicity = 1
 C                    0     1.50391   10.93401   106.56156 
 C                    0     1.06934   10.89718   105.25692 
 C                    0    -0.25386   10.54183   104.9408 
 C                    0    -1.10815   10.19812   106.00487 
 C                    0    -0.6795    10.24919   107.31199 
 C                    0     0.63496   10.6275   107.60051 
 H                    0     2.52994   11.20274   106.79476 
 H                    0     1.75504   11.09801   104.44925 
 H                    0    -2.12565   9.89211   105.80826 
 O                    0    -1.53937   9.93914   108.35111 
 H                    0    -1.0122    10.02784   109.155 
 O                    0     1.02497   10.67735   108.95424 
 H                    0     1.96676   10.86947   108.95886 
 C                    0    -0.66199   10.4016   103.55404 
 H                    0    -1.74698   10.34246   103.44947 
 H                    0    -0.26872   11.1934   102.91664 
 C                    0    -0.03319   8.98458   102.87016 
 H                    0    -0.76019   8.85366   102.02028 
 H                    0    -0.24852   8.20824   103.61839 
 N                    0     1.29085   8.99281   102.5702 
 H                    0     1.45257   9.59875   101.75268 
 

 GradGradGradGradGradGradGradGradGradGradGradGradGradGradGradGradGradGrad
 Berny optimization.
 Initialization pass.
                           ----------------------------
                           !    Initial Parameters    !
                           ! (Angstroms and Degrees)  !
 --------------------------                            --------------------------
 ! Name  Definition              Value          Derivative Info.                !
 --------------------------------------------------------------------------------
 ! R1    R(1,2)                  1.3756         estimate D2E/DX2                !
 ! R2    R(1,6)                  1.3887         estimate D2E/DX2                !
 ! R3    R(1,7)                  1.086          estimate D2E/DX2                !
 ! R4    R(2,3)                  1.4061         estimate D2E/DX2                !
 ! R5    R(2,8)                  1.0783         estimate D2E/DX2                !
 ! R6    R(3,4)                  1.4072         estimate D2E/DX2                !
 ! R7    R(3,14)                 1.4524         estimate D2E/DX2                !
 ! R8    R(4,5)                  1.3766         estimate D2E/DX2                !
 ! R9    R(4,9)                  1.0806         estimate D2E/DX2                !
 ! R10   R(5,6)                  1.3979         estimate D2E/DX2                !
 ! R11   R(5,10)                 1.3839         estimate D2E/DX2                !
 ! R12   R(6,12)                 1.4097         estimate D2E/DX2                !
 ! R13   R(10,11)                0.9654         estimate D2E/DX2                !
 ! R14   R(12,13)                0.9612         estimate D2E/DX2                !
 ! R15   R(14,15)                1.0916         estimate D2E/DX2                !
 ! R16   R(14,16)                1.0899         estimate D2E/DX2                !
 ! R17   R(14,17)                1.6944         estimate D2E/DX2                !
 ! R18   R(17,18)                1.126          estimate D2E/DX2                !
 ! R19   R(17,19)                1.0995         estimate D2E/DX2                !
 ! R20   R(17,20)                1.3576         estimate D2E/DX2                !
 ! R21   R(20,21)                1.0304         estimate D2E/DX2                !
 ! A1    A(2,1,6)              120.3964         estimate D2E/DX2                !
 ! A2    A(2,1,7)              120.5804         estimate D2E/DX2                !
 ! A3    A(6,1,7)              119.0232         estimate D2E/DX2                !
 ! A4    A(1,2,3)              121.1495         estimate D2E/DX2                !
 ! A5    A(1,2,8)              120.2973         estimate D2E/DX2                !
 ! A6    A(3,2,8)              118.4943         estimate D2E/DX2                !
 ! A7    A(2,3,4)              117.583          estimate D2E/DX2                !
 ! A8    A(2,3,14)             120.233          estimate D2E/DX2                !
 ! A9    A(4,3,14)             121.8587         estimate D2E/DX2                !
 ! A10   A(3,4,5)              121.3263         estimate D2E/DX2                !
 ! A11   A(3,4,9)              120.2153         estimate D2E/DX2                !
 ! A12   A(5,4,9)              118.4572         estimate D2E/DX2                !
 ! A13   A(4,5,6)              119.9224         estimate D2E/DX2                !
 ! A14   A(4,5,10)             120.7424         estimate D2E/DX2                !
 ! A15   A(6,5,10)             119.3335         estimate D2E/DX2                !
 ! A16   A(1,6,5)              119.584          estimate D2E/DX2                !
 ! A17   A(1,6,12)             122.5167         estimate D2E/DX2                !
 ! A18   A(5,6,12)             117.899          estimate D2E/DX2                !
 ! A19   A(5,10,11)            105.3885         estimate D2E/DX2                !
 ! A20   A(6,12,13)            106.425          estimate D2E/DX2                !
 ! A21   A(3,14,15)            112.0866         estimate D2E/DX2                !
 ! A22   A(3,14,16)            112.7599         estimate D2E/DX2                !
 ! A23   A(3,14,17)            111.2135         estimate D2E/DX2                !
 ! A24   A(15,14,16)           109.9969         estimate D2E/DX2                !
 ! A25   A(15,14,17)           106.5516         estimate D2E/DX2                !
 ! A26   A(16,14,17)           103.7452         estimate D2E/DX2                !
 ! A27   A(14,17,18)            99.3382         estimate D2E/DX2                !
 ! A28   A(14,17,19)           104.0723         estimate D2E/DX2                !
 ! A29   A(14,17,20)           116.4896         estimate D2E/DX2                !
 ! A30   A(18,17,19)           107.7629         estimate D2E/DX2                !
 ! A31   A(18,17,20)           117.62           estimate D2E/DX2                !
 ! A32   A(19,17,20)           110.2206         estimate D2E/DX2                !
 ! A33   A(17,20,21)           109.3867         estimate D2E/DX2                !
 ! D1    D(6,1,2,3)             -0.4487         estimate D2E/DX2                !
 ! D2    D(6,1,2,8)           -177.6157         estimate D2E/DX2                !
 ! D3    D(7,1,2,3)            179.5529         estimate D2E/DX2                !
 ! D4    D(7,1,2,8)              2.3859         estimate D2E/DX2                !
 ! D5    D(2,1,6,5)              1.5151         estimate D2E/DX2                !
 ! D6    D(2,1,6,12)          -178.6797         estimate D2E/DX2                !
 ! D7    D(7,1,6,5)           -178.4865         estimate D2E/DX2                !
 ! D8    D(7,1,6,12)             1.3187         estimate D2E/DX2                !
 ! D9    D(1,2,3,4)             -1.32           estimate D2E/DX2                !
 ! D10   D(1,2,3,14)          -174.892          estimate D2E/DX2                !
 ! D11   D(8,2,3,4)            175.8968         estimate D2E/DX2                !
 ! D12   D(8,2,3,14)             2.3248         estimate D2E/DX2                !
 ! D13   D(2,3,4,5)              2.0765         estimate D2E/DX2                !
 ! D14   D(2,3,4,9)           -178.3223         estimate D2E/DX2                !
 ! D15   D(14,3,4,5)           175.5372         estimate D2E/DX2                !
 ! D16   D(14,3,4,9)            -4.8616         estimate D2E/DX2                !
 ! D17   D(2,3,14,15)         -167.3804         estimate D2E/DX2                !
 ! D18   D(2,3,14,16)          -42.5983         estimate D2E/DX2                !
 ! D19   D(2,3,14,17)           73.457          estimate D2E/DX2                !
 ! D20   D(4,3,14,15)           19.3289         estimate D2E/DX2                !
 ! D21   D(4,3,14,16)          144.1109         estimate D2E/DX2                !
 ! D22   D(4,3,14,17)          -99.8337         estimate D2E/DX2                !
 ! D23   D(3,4,5,6)             -1.0594         estimate D2E/DX2                !
 ! D24   D(3,4,5,10)           178.4524         estimate D2E/DX2                !
 ! D25   D(9,4,5,6)            179.3326         estimate D2E/DX2                !
 ! D26   D(9,4,5,10)            -1.1556         estimate D2E/DX2                !
 ! D27   D(4,5,6,1)             -0.7654         estimate D2E/DX2                !
 ! D28   D(4,5,6,12)           179.4205         estimate D2E/DX2                !
 ! D29   D(10,5,6,1)           179.7159         estimate D2E/DX2                !
 ! D30   D(10,5,6,12)           -0.0982         estimate D2E/DX2                !
 ! D31   D(4,5,10,11)          178.839          estimate D2E/DX2                !
 ! D32   D(6,5,10,11)           -1.6464         estimate D2E/DX2                !
 ! D33   D(1,6,12,13)           -5.1021         estimate D2E/DX2                !
 ! D34   D(5,6,12,13)          174.7062         estimate D2E/DX2                !
 ! D35   D(3,14,17,18)         158.2846         estimate D2E/DX2                !
 ! D36   D(3,14,17,19)          47.1867         estimate D2E/DX2                !
 ! D37   D(3,14,17,20)         -74.3503         estimate D2E/DX2                !
 ! D38   D(15,14,17,18)         35.8642         estimate D2E/DX2                !
 ! D39   D(15,14,17,19)        -75.2337         estimate D2E/DX2                !
 ! D40   D(15,14,17,20)        163.2293         estimate D2E/DX2                !
 ! D41   D(16,14,17,18)        -80.2376         estimate D2E/DX2                !
 ! D42   D(16,14,17,19)        168.6646         estimate D2E/DX2                !
 ! D43   D(16,14,17,20)         47.1276         estimate D2E/DX2                !
 ! D44   D(14,17,20,21)        -71.9651         estimate D2E/DX2                !
 ! D45   D(18,17,20,21)         45.769          estimate D2E/DX2                !
 ! D46   D(19,17,20,21)        169.8011         estimate D2E/DX2                !
 --------------------------------------------------------------------------------
 Trust Radius=3.00D-01 FncErr=1.00D-07 GrdErr=1.00D-06 EigMax=2.50D+02 EigMin=1.00D-04
 Number of steps in this run=    110 maximum allowed number of steps=    126.
 GradGradGradGradGradGradGradGradGradGradGradGradGradGradGradGradGradGrad

                          Input orientation:                          
 ---------------------------------------------------------------------
 Center     Atomic      Atomic             Coordinates (Angstroms)
 Number     Number       Type             X           Y           Z
 ---------------------------------------------------------------------
      1          6           0        1.503907   10.934008  106.561564
      2          6           0        1.069344   10.897183  105.256918
      3          6           0       -0.253860   10.541834  104.940801
      4          6           0       -1.108154   10.198121  106.004870
      5          6           0       -0.679500   10.249194  107.311990
      6          6           0        0.634963   10.627505  107.600508
      7          1           0        2.529936   11.202743  106.794758
      8          1           0        1.755038   11.098008  104.449251
      9          1           0       -2.125651    9.892111  105.808263
     10          8           0       -1.539371    9.939137  108.351111
     11          1           0       -1.012203   10.027840  109.155004
     12          8           0        1.024965   10.677349  108.954238
     13          1           0        1.966757   10.869474  108.958859
     14          6           0       -0.661990   10.401600  103.554042
     15          1           0       -1.746982   10.342458  103.449468
     16          1           0       -0.268723   11.193400  102.916635
     17          6           0       -0.033186    8.984582  102.870162
     18          1           0       -0.760191    8.853658  102.020282
     19          1           0       -0.248519    8.208240  103.618395
     20          7           0        1.290849    8.992807  102.570201
     21          1           0        1.452571    9.598749  101.752679
 ---------------------------------------------------------------------
                    Distance matrix (angstroms):
                    1          2          3          4          5
     1  C    0.000000
     2  C    1.375610   0.000000
     3  C    2.422895   1.406084   0.000000
     4  C    2.770252   2.406163   1.407196   0.000000
     5  C    2.408188   2.775188   2.426797   1.376559   0.000000
     6  C    1.388672   2.398714   2.805599   2.401851   1.397918
     7  H    1.085972   2.142813   3.409322   3.856020   3.387811
     8  H    2.133502   1.078347   2.141640   3.380476   3.852627
     9  H    3.850546   3.394429   2.162922   1.080554   2.116614
    10  O    3.667940   4.159000   3.694049   2.399556   1.383939
    11  H    3.725302   4.503740   4.312630   3.156191   1.885839
    12  O    2.453599   3.704116   4.214432   3.671325   2.405306
    13  H    2.442420   3.809263   4.602530   4.316462   3.177987
    14  C    3.744297   2.478489   1.452355   2.499404   3.761077
    15  H    4.539092   3.392093   2.119726   2.637995   4.008403
    16  H    4.061405   2.712027   2.126501   3.351480   4.514355
    17  C    4.448524   3.251188   2.600246   3.529112   4.663347
    18  H    5.484272   4.242524   3.411120   4.219669   5.473226
    19  H    4.377563   3.413494   2.682247   3.223952   4.241920
    20  N    4.443493   3.300630   3.225733   4.359466   5.286335
    21  H    4.991085   3.756659   3.737036   4.999769   5.989553
                    6          7          8          9         10
     6  C    0.000000
     7  H    2.138002   0.000000
     8  H    3.377330   2.472415   0.000000
     9  H    3.372527   4.936134   4.284956   0.000000
    10  O    2.401038   4.536320   5.236471   2.609984   0.000000
    11  H    2.342907   4.415644   5.563002   3.529711   0.965410
    12  O    1.409671   2.684088   4.583107   4.521078   2.735789
    13  H    1.917639   2.260879   4.520356   5.256358   3.678018
    14  C    4.255233   4.618708   2.669908   2.735579   4.898524
    15  H    4.794377   5.497553   3.719485   2.431073   4.922589
    16  H    4.803701   4.782511   2.540397   3.674649   5.720249
    17  C    5.051910   5.185777   3.187137   3.719470   5.763729
    18  H    6.019295   6.256098   4.154922   4.158325   6.470301
    19  H    4.742427   5.174567   3.613216   3.339846   5.202010
    20  N    5.329766   4.926056   2.859750   4.792313   6.505736
    21  H    5.993657   5.399636   3.100123   5.416410   7.253061
                   11         12         13         14         15
    11  H    0.000000
    12  O    2.147609   0.000000
    13  H    3.101777   0.961199   0.000000
    14  C    5.624332   5.664271   6.028371   0.000000
    15  H    5.761252   6.172385   6.665058   1.091623   0.000000
    16  H    6.389721   6.196175   6.450641   1.089906   1.786970
    17  C    6.445626   6.403213   6.680182   1.694410   2.261973
    18  H    7.235086   7.388666   7.722928   2.181327   2.287543
    19  H    5.877771   6.015770   6.364761   2.232919   2.613201
    20  N    7.052302   6.607897   6.692808   2.601196   3.438472
    21  H    7.813683   7.294428   7.335405   2.891514   3.697207
                   16         17         18         19         20
    16  H    0.000000
    17  C    2.221827   0.000000
    18  H    2.553308   1.126043   0.000000
    19  H    3.066603   1.099513   1.797870   0.000000
    20  N    2.719355   1.357613   2.128037   2.020869   0.000000
    21  H    2.619267   1.957918   2.350125   2.882381   1.030370
                   21
    21  H    0.000000
 Stoichiometry    C8H10NO2(1-)
 Framework group  C1[X(C8H10NO2)]
 Deg. of freedom    57
 Full point group                 C1      NOp   1
 Largest Abelian subgroup         C1      NOp   1
 Largest concise Abelian subgroup C1      NOp   1
                         Standard orientation:                         
 ---------------------------------------------------------------------
 Center     Atomic      Atomic             Coordinates (Angstroms)
 Number     Number       Type             X           Y           Z
 ---------------------------------------------------------------------
      1          6           0        0.817196    1.518789    0.267421
      2          6           0       -0.454795    1.084019    0.559508
      3          6           0       -0.772577   -0.285682    0.562250
      4          6           0        0.250153   -1.192519    0.227780
      5          6           0        1.527300   -0.760356   -0.049793
      6          6           0        1.822279    0.605836   -0.023671
      7          1           0        1.050689    2.579342    0.260893
      8          1           0       -1.243070    1.795396    0.747653
      9          1           0        0.045826   -2.252911    0.190148
     10          8           0        2.531564   -1.665246   -0.346297
     11          1           0        3.316024   -1.129776   -0.519244
     12          8           0        3.146680    1.000132   -0.302358
     13          1           0        3.145467    1.961103   -0.323282
     14          6           0       -2.144427   -0.717709    0.764030
     15          1           0       -2.212500   -1.789159    0.961520
     16          1           0       -2.650337   -0.160526    1.552381
     17          6           0       -3.089665   -0.419159   -0.610167
     18          1           0       -3.918404   -1.158955   -0.426135
     19          1           0       -2.479422   -0.799153   -1.442114
     20          7           0       -3.438401    0.873293   -0.836146
     21          1           0       -4.144200    1.163187   -0.143708
 ---------------------------------------------------------------------
 Rotational constants (GHZ):           2.3225949           0.6339860           0.5411082
 Standard basis: def2TZVP (5D, 7F)
 There are   456 symmetry adapted cartesian basis functions of A   symmetry.
 There are   401 symmetry adapted basis functions of A   symmetry.
   401 basis functions,   641 primitive gaussians,   456 cartesian basis functions
    41 alpha electrons       41 beta electrons
       nuclear repulsion energy       586.0466109768 Hartrees.
 NAtoms=   21 NActive=   21 NUniq=   21 SFac= 1.00D+00 NAtFMM=   60 NAOKFM=F Big=F
 Integral buffers will be    131072 words long.
 Raffenetti 2 integral format.
 Two-electron integral symmetry is turned on.
 ------------------------------------------------------------------------------
 Polarizable Continuum Model (PCM)
 =================================
 Model                : PCM.
 Atomic radii         : SMD-Coulomb.
 Polarization charges : Total charges.
 Charge compensation  : None.
 Solution method      : On-the-fly selection.
 Cavity type          : VdW (van der Waals Surface) (Alpha=1.000).
 Cavity algorithm     : GePol (No added spheres)
                        Default sphere list used, NSphG=   21.
                        Lebedev-Laikov grids with approx.  5.0 points / Ang**2.
                        Smoothing algorithm: York/Karplus (Gamma=1.0000).
                        Polarization charges: spherical gaussians, with
                                              point-specific exponents (IZeta= 3).
                        Self-potential: point-specific (ISelfS= 7).
                        Self-field    : sphere-specific E.n sum rule (ISelfD= 2).
 1st derivatives      : Analytical E(r).r(x)/FMM algorithm (CHGder, D1EAlg=3).
                        Cavity 1st derivative terms included.
 Solvent              : Water, Eps=  78.355300 Eps(inf)=   1.777849
 ------------------------------------------------------------------------------
 ------------------------------------------------------------------------------
 Atomic radii for non-electrostatic terms: SMD-CDS.
 ------------------------------------------------------------------------------
 Nuclear repulsion after PCM non-electrostatic terms =      586.0498806803 Hartrees.
 One-electron integrals computed using PRISM.
   1 Symmetry operations used in ECPInt.
 ECPInt:  NShTT=   13041 NPrTT=   39612 LenC2=   12311 LenP2D=   28742.
 LDataN:  DoStor=T MaxTD1= 6 Len=  172
 NBasis=   401 RedAO= T EigKep=  8.91D-06  NBF=   401
 NBsUse=   401 1.00D-06 EigRej= -1.00D+00 NBFU=   401
 ExpMin= 9.52D-02 ExpMax= 2.70D+04 ExpMxC= 9.22D+02 IAcc=3 IRadAn=         5 AccDes= 0.00D+00
 Harris functional with IExCor= 1009 and IRadAn=       5 diagonalized for initial guess.
 HarFok:  IExCor= 1009 AccDes= 0.00D+00 IRadAn=         5 IDoV= 1 UseB2=F ITyADJ=14
 ICtDFT=  3500011 ScaDFX=  1.000000  1.000000  1.000000  1.000000
 FoFCou: FMM=F IPFlag=           0 FMFlag=      100000 FMFlg1=           0
         NFxFlg=           0 DoJE=T BraDBF=F KetDBF=T FulRan=T
         wScrn=  0.000000 ICntrl=       500 IOpCl=  0 I1Cent=   200000004 NGrid=           0
         NMat0=    1 NMatS0=      1 NMatT0=    0 NMatD0=    1 NMtDS0=    0 NMtDT0=    0
 Petite list used in FoFCou.
 Requested convergence on RMS density matrix=1.00D-08 within 128 cycles.
 Requested convergence on MAX density matrix=1.00D-06.
 Requested convergence on             energy=1.00D-06.
 No special actions if energy rises.
 Inv3:  Mode=1 IEnd=     7824675.
 Iteration    1 A*A^-1 deviation from unit magnitude is 5.33D-15 for   1612.
 Iteration    1 A*A^-1 deviation from orthogonality  is 2.44D-15 for   1254    875.
 Iteration    1 A^-1*A deviation from unit magnitude is 5.44D-15 for   1612.
 Iteration    1 A^-1*A deviation from orthogonality  is 1.14D-14 for   1271    894.
 Error on total polarization charges =  0.06118
 SCF Done:  E(RM062X) =  -516.118966194     A.U. after   15 cycles
            NFock= 15  Conv=0.23D-08     -V/T= 2.0048
 SMD-CDS (non-electrostatic) energy       (kcal/mol) =       2.05
 (included in total energy above)

 **********************************************************************

            Population analysis using the SCF Density.

 **********************************************************************

 Orbital symmetries:
       Occupied  (A) (A) (A) (A) (A) (A) (A) (A) (A) (A) (A) (A)
                 (A) (A) (A) (A) (A) (A) (A) (A) (A) (A) (A) (A)
                 (A) (A) (A) (A) (A) (A) (A) (A) (A) (A) (A) (A)
                 (A) (A) (A) (A) (A)
       Virtual   (A) (A) (A) (A) (A) (A) (A) (A) (A) (A) (A) (A)
                 (A) (A) (A) (A) (A) (A) (A) (A) (A) (A) (A) (A)
                 (A) (A) (A) (A) (A) (A) (A) (A) (A) (A) (A) (A)
                 (A) (A) (A) (A) (A) (A) (A) (A) (A) (A) (A) (A)
                 (A) (A) (A) (A) (A) (A) (A) (A) (A) (A) (A) (A)
                 (A) (A) (A) (A) (A) (A) (A) (A) (A) (A) (A) (A)
                 (A) (A) (A) (A) (A) (A) (A) (A) (A) (A) (A) (A)
                 (A) (A) (A) (A) (A) (A) (A) (A) (A) (A) (A) (A)
                 (A) (A) (A) (A) (A) (A) (A) (A) (A) (A) (A) (A)
                 (A) (A) (A) (A) (A) (A) (A) (A) (A) (A) (A) (A)
                 (A) (A) (A) (A) (A) (A) (A) (A) (A) (A) (A) (A)
                 (A) (A) (A) (A) (A) (A) (A) (A) (A) (A) (A) (A)
                 (A) (A) (A) (A) (A) (A) (A) (A) (A) (A) (A) (A)
                 (A) (A) (A) (A) (A) (A) (A) (A) (A) (A) (A) (A)
                 (A) (A) (A) (A) (A) (A) (A) (A) (A) (A) (A) (A)
                 (A) (A) (A) (A) (A) (A) (A) (A) (A) (A) (A) (A)
                 (A) (A) (A) (A) (A) (A) (A) (A) (A) (A) (A) (A)
                 (A) (A) (A) (A) (A) (A) (A) (A) (A) (A) (A) (A)
                 (A) (A) (A) (A) (A) (A) (A) (A) (A) (A) (A) (A)
                 (A) (A) (A) (A) (A) (A) (A) (A) (A) (A) (A) (A)
                 (A) (A) (A) (A) (A) (A) (A) (A) (A) (A) (A) (A)
                 (A) (A) (A) (A) (A) (A) (A) (A) (A) (A) (A) (A)
                 (A) (A) (A) (A) (A) (A) (A) (A) (A) (A) (A) (A)
                 (A) (A) (A) (A) (A) (A) (A) (A) (A) (A) (A) (A)
                 (A) (A) (A) (A) (A) (A) (A) (A) (A) (A) (A) (A)
                 (A) (A) (A) (A) (A) (A) (A) (A) (A) (A) (A) (A)
                 (A) (A) (A) (A) (A) (A) (A) (A) (A) (A) (A) (A)
                 (A) (A) (A) (A) (A) (A) (A) (A) (A) (A) (A) (A)
                 (A) (A) (A) (A) (A) (A) (A) (A) (A) (A) (A) (A)
                 (A) (A) (A) (A) (A) (A) (A) (A) (A) (A) (A) (A)
 The electronic state is 1-A.
 Alpha  occ. eigenvalues --  -19.65317 -19.65115 -14.62002 -10.59599 -10.59322
 Alpha  occ. eigenvalues --  -10.53405 -10.53224 -10.52769 -10.52395 -10.52087
 Alpha  occ. eigenvalues --  -10.49833  -1.18697  -1.15986  -0.95399  -0.90329
 Alpha  occ. eigenvalues --   -0.84896  -0.83531  -0.75748  -0.69977  -0.67840
 Alpha  occ. eigenvalues --   -0.63665  -0.61076  -0.59085  -0.54739  -0.52695
 Alpha  occ. eigenvalues --   -0.50901  -0.49768  -0.48940  -0.47348  -0.45651
 Alpha  occ. eigenvalues --   -0.45093  -0.43840  -0.42824  -0.40797  -0.39031
 Alpha  occ. eigenvalues --   -0.38619  -0.37241  -0.29551  -0.27005  -0.25444
 Alpha  occ. eigenvalues --   -0.18897
 Alpha virt. eigenvalues --    0.03238   0.04499   0.07688   0.09767   0.10403
 Alpha virt. eigenvalues --    0.11625   0.12491   0.13750   0.14101   0.15788
 Alpha virt. eigenvalues --    0.17111   0.17883   0.19147   0.20429   0.20747
 Alpha virt. eigenvalues --    0.21508   0.22193   0.24223   0.24888   0.25538
 Alpha virt. eigenvalues --    0.26640   0.27795   0.28251   0.29550   0.31376
 Alpha virt. eigenvalues --    0.31597   0.32417   0.34857   0.35298   0.36155
 Alpha virt. eigenvalues --    0.36829   0.37524   0.37916   0.38294   0.39641
 Alpha virt. eigenvalues --    0.39889   0.40913   0.41416   0.41850   0.42890
 Alpha virt. eigenvalues --    0.43145   0.44709   0.45483   0.46046   0.47510
 Alpha virt. eigenvalues --    0.48647   0.49489   0.49877   0.50632   0.51621
 Alpha virt. eigenvalues --    0.51800   0.53834   0.54135   0.55408   0.56718
 Alpha virt. eigenvalues --    0.57539   0.58250   0.59214   0.59933   0.60699
 Alpha virt. eigenvalues --    0.62384   0.62991   0.64422   0.65353   0.65657
 Alpha virt. eigenvalues --    0.66985   0.67635   0.69424   0.70336   0.71484
 Alpha virt. eigenvalues --    0.74631   0.74984   0.76660   0.77788   0.78494
 Alpha virt. eigenvalues --    0.79627   0.81290   0.82678   0.84346   0.86678
 Alpha virt. eigenvalues --    0.87838   0.88817   0.90173   0.90294   0.92182
 Alpha virt. eigenvalues --    0.92756   0.95395   0.96865   1.00052   1.01778
 Alpha virt. eigenvalues --    1.02687   1.06209   1.06823   1.10374   1.11016
 Alpha virt. eigenvalues --    1.11905   1.14134   1.14738   1.15391   1.17944
 Alpha virt. eigenvalues --    1.20625   1.22890   1.23965   1.25510   1.25996
 Alpha virt. eigenvalues --    1.27359   1.29292   1.31546   1.32710   1.34482
 Alpha virt. eigenvalues --    1.36134   1.38025   1.39231   1.40697   1.42557
 Alpha virt. eigenvalues --    1.42832   1.44614   1.46518   1.47806   1.50315
 Alpha virt. eigenvalues --    1.52032   1.52920   1.55502   1.56873   1.57891
 Alpha virt. eigenvalues --    1.59417   1.60743   1.62409   1.64686   1.66219
 Alpha virt. eigenvalues --    1.67546   1.69373   1.69863   1.72145   1.72829
 Alpha virt. eigenvalues --    1.74199   1.74613   1.75049   1.76967   1.79773
 Alpha virt. eigenvalues --    1.79936   1.82167   1.83945   1.86529   1.88219
 Alpha virt. eigenvalues --    1.88685   1.91474   1.92527   1.92907   1.94177
 Alpha virt. eigenvalues --    1.95740   1.98547   1.99536   2.02658   2.03716
 Alpha virt. eigenvalues --    2.04608   2.06499   2.06956   2.10310   2.10796
 Alpha virt. eigenvalues --    2.13493   2.14514   2.15469   2.17610   2.18565
 Alpha virt. eigenvalues --    2.19761   2.20962   2.22165   2.24337   2.25586
 Alpha virt. eigenvalues --    2.28214   2.28849   2.31033   2.33052   2.35580
 Alpha virt. eigenvalues --    2.35795   2.37799   2.38892   2.41133   2.44733
 Alpha virt. eigenvalues --    2.46919   2.47852   2.49962   2.52070   2.52974
 Alpha virt. eigenvalues --    2.53910   2.54827   2.58397   2.59281   2.61606
 Alpha virt. eigenvalues --    2.64069   2.66478   2.67064   2.67339   2.69093
 Alpha virt. eigenvalues --    2.71346   2.71867   2.73121   2.74098   2.77454
 Alpha virt. eigenvalues --    2.78263   2.78450   2.78736   2.79577   2.80839
 Alpha virt. eigenvalues --    2.83804   2.85347   2.87880   2.88817   2.89173
 Alpha virt. eigenvalues --    2.90537   2.92170   2.92933   2.94042   2.96278
 Alpha virt. eigenvalues --    2.97470   2.98332   2.99580   3.02036   3.04058
 Alpha virt. eigenvalues --    3.05221   3.06533   3.07163   3.10085   3.11246
 Alpha virt. eigenvalues --    3.14031   3.15946   3.17561   3.18364   3.19273
 Alpha virt. eigenvalues --    3.19428   3.20909   3.21863   3.23003   3.24151
 Alpha virt. eigenvalues --    3.24968   3.27757   3.28049   3.28871   3.29924
 Alpha virt. eigenvalues --    3.31683   3.32490   3.35501   3.36685   3.38367
 Alpha virt. eigenvalues --    3.38780   3.40674   3.41662   3.43527   3.43817
 Alpha virt. eigenvalues --    3.45278   3.47987   3.48649   3.49953   3.50031
 Alpha virt. eigenvalues --    3.53577   3.53921   3.55323   3.55618   3.57613
 Alpha virt. eigenvalues --    3.62795   3.65814   3.68002   3.70138   3.70743
 Alpha virt. eigenvalues --    3.72833   3.75266   3.77316   3.81697   3.84307
 Alpha virt. eigenvalues --    3.86609   3.88472   3.92504   3.92890   3.95126
 Alpha virt. eigenvalues --    3.97550   3.99754   4.04500   4.06816   4.07736
 Alpha virt. eigenvalues --    4.10568   4.13005   4.13960   4.15786   4.17567
 Alpha virt. eigenvalues --    4.17802   4.21511   4.22728   4.24304   4.28114
 Alpha virt. eigenvalues --    4.31531   4.33638   4.34401   4.36711   4.42036
 Alpha virt. eigenvalues --    4.44514   4.47358   4.51223   4.56132   4.57516
 Alpha virt. eigenvalues --    4.59387   4.63331   4.65448   4.70472   4.71879
 Alpha virt. eigenvalues --    4.78668   4.80543   4.84833   4.87063   4.89287
 Alpha virt. eigenvalues --    4.92304   4.96749   4.97580   5.01472   5.07267
 Alpha virt. eigenvalues --    5.09172   5.15500   5.24162   5.24292   5.25785
 Alpha virt. eigenvalues --    5.29953   5.30879   5.34556   5.40120   5.41215
 Alpha virt. eigenvalues --    5.43246   5.45525   5.49341   5.52158   5.61493
 Alpha virt. eigenvalues --    5.63064   5.72010   5.82541   5.82825   5.94862
 Alpha virt. eigenvalues --    6.15008   6.24407   6.36855   6.41227   6.43703
 Alpha virt. eigenvalues --    6.46434   6.64046   6.73553   6.77954   6.81456
 Alpha virt. eigenvalues --    6.97248   6.99241   7.18394   7.30519  22.26302
 Alpha virt. eigenvalues --   22.67728  22.69194  22.85330  22.89720  22.96047
 Alpha virt. eigenvalues --   23.08369  23.47866  32.14525  43.97636  44.20168
          Condensed to atoms (all electrons):
               1          2          3          4          5          6
     1  C    6.567935  -1.271166   1.133028  -0.609227   0.526371  -0.459238
     2  C   -1.271166   7.940940  -1.514449   0.822610  -0.699396   0.878032
     3  C    1.133028  -1.514449   6.905887  -0.386006   0.539093  -0.716689
     4  C   -0.609227   0.822610  -0.386006   5.814701   0.001660   0.408963
     5  C    0.526371  -0.699396   0.539093   0.001660   5.279635  -0.083033
     6  C   -0.459238   0.878032  -0.716689   0.408963  -0.083033   5.752158
     7  H    0.478689  -0.095280   0.047933  -0.012278   0.016061  -0.072877
     8  H   -0.182445   0.666326  -0.296134   0.056160  -0.027873   0.062966
     9  H   -0.020549   0.047350  -0.067399   0.441501  -0.075182   0.033123
    10  O    0.016902  -0.004685   0.003192  -0.051948   0.330268  -0.119267
    11  H    0.005477  -0.001494   0.000985   0.001029  -0.019173  -0.030983
    12  O   -0.085675   0.011706  -0.000164   0.001539  -0.052261   0.265125
    13  H   -0.002652   0.004315  -0.000381  -0.000073   0.002725  -0.031753
    14  C    0.163224  -0.705890   0.278247  -0.191398   0.090713  -0.061440
    15  H   -0.011150   0.070699   0.002592  -0.010656  -0.006502   0.004073
    16  H   -0.003868   0.004209  -0.059291   0.005403  -0.001437   0.001371
    17  C   -0.012797   0.056046  -0.017203   0.004085  -0.009186   0.005088
    18  H   -0.002644   0.020259   0.015763   0.008436  -0.001687   0.000693
    19  H    0.002176  -0.003627   0.041040  -0.018141   0.004500  -0.001551
    20  N   -0.039355   0.121445  -0.096652   0.016843  -0.004840   0.007070
    21  H    0.001295  -0.003285   0.004226  -0.001617   0.000229  -0.000153
               7          8          9         10         11         12
     1  C    0.478689  -0.182445  -0.020549   0.016902   0.005477  -0.085675
     2  C   -0.095280   0.666326   0.047350  -0.004685  -0.001494   0.011706
     3  C    0.047933  -0.296134  -0.067399   0.003192   0.000985  -0.000164
     4  C   -0.012278   0.056160   0.441501  -0.051948   0.001029   0.001539
     5  C    0.016061  -0.027873  -0.075182   0.330268  -0.019173  -0.052261
     6  C   -0.072877   0.062966   0.033123  -0.119267  -0.030983   0.265125
     7  H    0.465989  -0.020511  -0.000104  -0.000009   0.000015  -0.003267
     8  H   -0.020511   0.610089   0.001091   0.000005  -0.000004  -0.000154
     9  H   -0.000104   0.001091   0.475159   0.005241  -0.000749  -0.000120
    10  O   -0.000009   0.000005   0.005241   8.017171   0.318495  -0.004489
    11  H    0.000015  -0.000004  -0.000749   0.318495   0.333076   0.013472
    12  O   -0.003267  -0.000154  -0.000120  -0.004489   0.013472   8.082699
    13  H    0.002236  -0.000039   0.000032  -0.000275  -0.000817   0.316900
    14  C    0.003023  -0.110300  -0.031348  -0.000004   0.000038  -0.000011
    15  H   -0.000095   0.007568   0.007943  -0.000047   0.000003   0.000000
    16  H   -0.000154   0.008056   0.000484   0.000004  -0.000001  -0.000001
    17  C   -0.000242   0.006234   0.002875   0.000009  -0.000002  -0.000001
    18  H   -0.000028   0.004947   0.001132  -0.000000   0.000000   0.000000
    19  H    0.000021   0.000487  -0.000117  -0.000006   0.000001   0.000002
    20  N   -0.001444   0.105896   0.000585  -0.000001  -0.000000   0.000000
    21  H    0.000031  -0.001425  -0.000020   0.000000   0.000000   0.000000
              13         14         15         16         17         18
     1  C   -0.002652   0.163224  -0.011150  -0.003868  -0.012797  -0.002644
     2  C    0.004315  -0.705890   0.070699   0.004209   0.056046   0.020259
     3  C   -0.000381   0.278247   0.002592  -0.059291  -0.017203   0.015763
     4  C   -0.000073  -0.191398  -0.010656   0.005403   0.004085   0.008436
     5  C    0.002725   0.090713  -0.006502  -0.001437  -0.009186  -0.001687
     6  C   -0.031753  -0.061440   0.004073   0.001371   0.005088   0.000693
     7  H    0.002236   0.003023  -0.000095  -0.000154  -0.000242  -0.000028
     8  H   -0.000039  -0.110300   0.007568   0.008056   0.006234   0.004947
     9  H    0.000032  -0.031348   0.007943   0.000484   0.002875   0.001132
    10  O   -0.000275  -0.000004  -0.000047   0.000004   0.000009  -0.000000
    11  H   -0.000817   0.000038   0.000003  -0.000001  -0.000002   0.000000
    12  O    0.316900  -0.000011   0.000000  -0.000001  -0.000001   0.000000
    13  H    0.322466   0.000002   0.000000   0.000000  -0.000001   0.000000
    14  C    0.000002   7.063930   0.151791   0.377674  -0.002687  -0.207697
    15  H    0.000000   0.151791   0.610805  -0.005136   0.002620   0.019063
    16  H    0.000000   0.377674  -0.005136   0.536507  -0.039284   0.002319
    17  C   -0.000001  -0.002687   0.002620  -0.039284   4.988245   0.467290
    18  H    0.000000  -0.207697   0.019063   0.002319   0.467290   0.764285
    19  H    0.000000  -0.132973   0.011417   0.009356   0.405239  -0.059155
    20  N   -0.000000  -0.324901   0.021147   0.013847   0.405893  -0.073716
    21  H   -0.000000  -0.020696   0.000989   0.008104  -0.099485  -0.024475
              19         20         21
     1  C    0.002176  -0.039355   0.001295
     2  C   -0.003627   0.121445  -0.003285
     3  C    0.041040  -0.096652   0.004226
     4  C   -0.018141   0.016843  -0.001617
     5  C    0.004500  -0.004840   0.000229
     6  C   -0.001551   0.007070  -0.000153
     7  H    0.000021  -0.001444   0.000031
     8  H    0.000487   0.105896  -0.001425
     9  H   -0.000117   0.000585  -0.000020
    10  O   -0.000006  -0.000001   0.000000
    11  H    0.000001  -0.000000   0.000000
    12  O    0.000002   0.000000   0.000000
    13  H    0.000000  -0.000000  -0.000000
    14  C   -0.132973  -0.324901  -0.020696
    15  H    0.011417   0.021147   0.000989
    16  H    0.009356   0.013847   0.008104
    17  C    0.405239   0.405893  -0.099485
    18  H   -0.059155  -0.073716  -0.024475
    19  H    0.663591  -0.044870   0.019704
    20  N   -0.044870   7.550721   0.343257
    21  H    0.019704   0.343257   0.585157
 Mulliken charges:
               1
     1  C   -0.194329
     2  C   -0.344666
     3  C    0.182383
     4  C   -0.301585
     5  C    0.189314
     6  C    0.158323
     7  H    0.192293
     8  H    0.109059
     9  H    0.179074
    10  O   -0.510555
    11  H    0.380631
    12  O   -0.545301
    13  H    0.387315
    14  C   -0.339295
    15  H    0.122878
    16  H    0.141838
    17  C   -0.162735
    18  H    0.065216
    19  H    0.102905
    20  N   -1.000926
    21  H    0.188165
 Sum of Mulliken charges =  -1.00000
 Mulliken charges with hydrogens summed into heavy atoms:
               1
     1  C   -0.002037
     2  C   -0.235607
     3  C    0.182383
     4  C   -0.122512
     5  C    0.189314
     6  C    0.158323
    10  O   -0.129924
    12  O   -0.157986
    14  C   -0.074580
    17  C    0.005386
    20  N   -0.812761
 Electronic spatial extent (au):  <R**2>=           2122.7939
 Charge=             -1.0000 electrons
 Dipole moment (field-independent basis, Debye):
    X=             12.8917    Y=             -0.2012    Z=              4.2171  Tot=             13.5654
 Quadrupole moment (field-independent basis, Debye-Ang):
   XX=           -110.0218   YY=            -69.1971   ZZ=            -78.5892
   XY=             20.3901   XZ=            -18.4552   YZ=              4.6159
 Traceless Quadrupole moment (field-independent basis, Debye-Ang):
   XX=            -24.0858   YY=             16.7389   ZZ=              7.3468
   XY=             20.3901   XZ=            -18.4552   YZ=              4.6159
 Octapole moment (field-independent basis, Debye-Ang**2):
  XXX=            200.3959  YYY=             20.3106  ZZZ=              4.1702  XYY=             39.3220
  XXY=            -16.9268  XXZ=             56.7971  XZZ=             33.7667  YZZ=             -6.7435
  YYZ=              7.3427  XYZ=            -19.3576
 Hexadecapole moment (field-independent basis, Debye-Ang**3):
 XXXX=          -2578.7539 YYYY=           -521.3974 ZZZZ=           -227.0016 XXXY=            151.2333
 XXXZ=           -272.6393 YYYX=            106.0148 YYYZ=              4.7699 ZZZX=            -51.9509
 ZZZY=             12.9962 XXYY=           -466.6608 XXZZ=           -474.7158 YYZZ=           -143.1583
 XXYZ=             58.8702 YYXZ=            -35.0827 ZZXY=             20.8914
 N-N= 5.860498806803D+02 E-N=-2.389820780694D+03  KE= 5.136521053090D+02
   1 Symmetry operations used in ECPInt.
 ECPInt:  NShTT=   13041 NPrTT=   39612 LenC2=   12311 LenP2D=   28742.
 LDataN:  DoStor=T MaxTD1= 7 Len=  274
 D1PCM: PCM CHGder 1st derivatives, ID1Alg=3 FixD1E=F DoIter=F DoCFld=F I1PDM=0.
 Calling FoFJK, ICntrl=      2127 FMM=F ISym2X=0 I1Cent= 0 IOpClX= 0 NMat=1 NMatS=1 NMatT=0.
 ***** Axes restored to original set *****
 -------------------------------------------------------------------
 Center     Atomic                   Forces (Hartrees/Bohr)
 Number     Number              X              Y              Z
 -------------------------------------------------------------------
      1        6           0.002014396   -0.000217267    0.013952298
      2        6          -0.010709250   -0.001953283   -0.008955735
      3        6           0.008770977    0.000172429    0.021131574
      4        6           0.002420732    0.002297666   -0.009421778
      5        6           0.006265885    0.001839022    0.012075256
      6        6           0.006406964    0.000789718    0.012545812
      7        1          -0.001040763    0.000104187    0.000716532
      8        1           0.000986081    0.003134654   -0.000446080
      9        1          -0.002756605   -0.000189333   -0.000649479
     10        8           0.005903103    0.001744499   -0.007636751
     11        1          -0.002900801   -0.001169064    0.005533237
     12        8          -0.012681212   -0.002568516   -0.024089475
     13        1           0.004702752    0.000938982    0.003359211
     14        6           0.000946818   -0.026793774   -0.024822038
     15        1          -0.000882498    0.002446456    0.000888078
     16        1          -0.000718473    0.001035029   -0.000477646
     17        6          -0.047427262    0.024464064    0.010917191
     18        1           0.005809576   -0.002433191    0.006704160
     19        1          -0.005240655    0.000652166   -0.000799554
     20        7           0.043842132   -0.000554197   -0.017715012
     21        1          -0.003711897   -0.003740246    0.007190199
 -------------------------------------------------------------------
 Cartesian Forces:  Max     0.047427262 RMS     0.012010499

 GradGradGradGradGradGradGradGradGradGradGradGradGradGradGradGradGradGrad
 Berny optimization.
 FormGI is forming the generalized inverse of G from B-inverse, IUseBI=4.
 Internal  Forces:  Max     0.041394085 RMS     0.006378760
 Search for a local minimum.
 Step number   1 out of a maximum of  110
 All quantities printed in internal units (Hartrees-Bohrs-Radians)
 Mixed Optimization -- RFO/linear search
 Second derivative matrix not updated -- first step.
 ITU=  0
     Eigenvalues ---    0.00230   0.01396   0.01564   0.01788   0.01904
     Eigenvalues ---    0.02025   0.02094   0.02161   0.02187   0.02209
     Eigenvalues ---    0.02252   0.02252   0.02301   0.02334   0.04587
     Eigenvalues ---    0.04708   0.05856   0.06500   0.09000   0.11576
     Eigenvalues ---    0.12650   0.14172   0.15982   0.16000   0.16000
     Eigenvalues ---    0.16000   0.16000   0.16000   0.18277   0.22048
     Eigenvalues ---    0.22142   0.22367   0.23430   0.24594   0.24822
     Eigenvalues ---    0.24999   0.25000   0.30959   0.33736   0.34626
     Eigenvalues ---    0.34824   0.35282   0.35927   0.36195   0.37938
     Eigenvalues ---    0.41620   0.42665   0.42724   0.44055   0.45390
     Eigenvalues ---    0.46260   0.48095   0.48389   0.49828   0.53433
     Eigenvalues ---    0.54326   0.55216
 RFO step:  Lambda=-1.23685441D-02 EMin= 2.30000000D-03
 Linear search not attempted -- first point.
 Iteration  1 RMS(Cart)=  0.06906510 RMS(Int)=  0.00183739
 Iteration  2 RMS(Cart)=  0.00231996 RMS(Int)=  0.00014202
 Iteration  3 RMS(Cart)=  0.00000475 RMS(Int)=  0.00014199
 Iteration  4 RMS(Cart)=  0.00000000 RMS(Int)=  0.00014199
 Variable       Old X    -DE/DX   Delta X   Delta X   Delta X     New X
                                 (Linear)    (Quad)   (Total)
    R1        2.59953   0.01243   0.00000   0.02485   0.02487   2.62440
    R2        2.62421  -0.00557   0.00000  -0.01118  -0.01117   2.61304
    R3        2.05219  -0.00080   0.00000  -0.00218  -0.00218   2.05001
    R4        2.65711  -0.00306   0.00000  -0.00630  -0.00628   2.65083
    R5        2.03778   0.00155   0.00000   0.00413   0.00413   2.04191
    R6        2.65921  -0.00613   0.00000  -0.01366  -0.01367   2.64554
    R7        2.74455   0.01989   0.00000   0.05077   0.05077   2.79533
    R8        2.60132   0.00599   0.00000   0.01119   0.01117   2.61249
    R9        2.04195   0.00276   0.00000   0.00743   0.00743   2.04938
   R10        2.64168  -0.00714   0.00000  -0.01549  -0.01550   2.62618
   R11        2.61527  -0.00358   0.00000  -0.00722  -0.00722   2.60805
   R12        2.66389  -0.02217   0.00000  -0.04895  -0.04895   2.61494
   R13        1.82436   0.00293   0.00000   0.00528   0.00528   1.82964
   R14        1.81640   0.00483   0.00000   0.00856   0.00856   1.82496
   R15        2.06287   0.00067   0.00000   0.00187   0.00187   2.06474
   R16        2.05962   0.00077   0.00000   0.00214   0.00214   2.06177
   R17        3.20197  -0.02050   0.00000  -0.10506  -0.10506   3.09691
   R18        2.12791  -0.00851   0.00000  -0.02644  -0.02644   2.10148
   R19        2.07778   0.00001   0.00000   0.00004   0.00004   2.07781
   R20        2.56552   0.04139   0.00000   0.07572   0.07572   2.64123
   R21        1.94712  -0.00847   0.00000  -0.01928  -0.01928   1.92784
    A1        2.10131  -0.00166   0.00000  -0.00547  -0.00550   2.09582
    A2        2.10453   0.00173   0.00000   0.00794   0.00794   2.11247
    A3        2.07735  -0.00007   0.00000  -0.00247  -0.00246   2.07488
    A4        2.11446   0.00007   0.00000   0.00248   0.00232   2.11677
    A5        2.09958  -0.00098   0.00000  -0.00614  -0.00627   2.09331
    A6        2.06812   0.00096   0.00000   0.00499   0.00486   2.07297
    A7        2.05221  -0.00133   0.00000  -0.00383  -0.00405   2.04816
    A8        2.09846   0.00633   0.00000   0.02518   0.02507   2.12353
    A9        2.12684  -0.00490   0.00000  -0.01791  -0.01809   2.10875
   A10        2.11754   0.00116   0.00000   0.00326   0.00316   2.12071
   A11        2.09815  -0.00076   0.00000  -0.00264  -0.00261   2.09554
   A12        2.06747  -0.00040   0.00000  -0.00056  -0.00054   2.06693
   A13        2.09304   0.00112   0.00000   0.00250   0.00242   2.09546
   A14        2.10735  -0.00445   0.00000  -0.01607  -0.01603   2.09132
   A15        2.08276   0.00333   0.00000   0.01359   0.01363   2.09639
   A16        2.08713   0.00069   0.00000   0.00239   0.00231   2.08944
   A17        2.13832   0.00539   0.00000   0.02070   0.02069   2.15901
   A18        2.05773  -0.00608   0.00000  -0.02305  -0.02305   2.03467
   A19        1.83938   0.01028   0.00000   0.05964   0.05964   1.89902
   A20        1.85747   0.00604   0.00000   0.03506   0.03506   1.89253
   A21        1.95628  -0.00193   0.00000  -0.01619  -0.01625   1.94003
   A22        1.96803  -0.00128   0.00000  -0.00328  -0.00366   1.96437
   A23        1.94104   0.00384   0.00000   0.02010   0.02003   1.96108
   A24        1.91981  -0.00029   0.00000  -0.01179  -0.01190   1.90790
   A25        1.85968  -0.00061   0.00000  -0.00074  -0.00061   1.85906
   A26        1.81070   0.00053   0.00000   0.01447   0.01437   1.82506
   A27        1.73378   0.00056   0.00000   0.00922   0.00905   1.74283
   A28        1.81640  -0.00490   0.00000  -0.02443  -0.02466   1.79174
   A29        2.03313   0.00737   0.00000   0.03707   0.03685   2.06997
   A30        1.88082  -0.00182   0.00000  -0.03258  -0.03263   1.84819
   A31        2.05286  -0.00332   0.00000  -0.01458  -0.01496   2.03789
   A32        1.92371   0.00136   0.00000   0.01879   0.01883   1.94254
   A33        1.90916  -0.00504   0.00000  -0.02924  -0.02924   1.87991
    D1       -0.00783   0.00010   0.00000   0.00028   0.00020  -0.00763
    D2       -3.09998  -0.00098   0.00000  -0.03175  -0.03184  -3.13182
    D3        3.13379   0.00024   0.00000   0.00664   0.00672   3.14051
    D4        0.04164  -0.00084   0.00000  -0.02538  -0.02532   0.01632
    D5        0.02644  -0.00077   0.00000  -0.02194  -0.02186   0.00458
    D6       -3.11855  -0.00029   0.00000  -0.00623  -0.00596  -3.12451
    D7       -3.11518  -0.00091   0.00000  -0.02821  -0.02824   3.13977
    D8        0.02302  -0.00043   0.00000  -0.01250  -0.01234   0.01068
    D9       -0.02304   0.00091   0.00000   0.02930   0.02926   0.00623
   D10       -3.05244   0.00020   0.00000  -0.00339  -0.00381  -3.05625
   D11        3.06998   0.00191   0.00000   0.06046   0.06063   3.13061
   D12        0.04058   0.00121   0.00000   0.02777   0.02756   0.06814
   D13        0.03624  -0.00128   0.00000  -0.03831  -0.03823  -0.00199
   D14       -3.11231  -0.00097   0.00000  -0.02677  -0.02657  -3.13888
   D15        3.06370   0.00021   0.00000  -0.00209  -0.00251   3.06120
   D16       -0.08485   0.00052   0.00000   0.00945   0.00916  -0.07569
   D17       -2.92134   0.00324   0.00000   0.08843   0.08834  -2.83299
   D18       -0.74348   0.00032   0.00000   0.05722   0.05733  -0.68615
   D19        1.28207   0.00269   0.00000   0.08653   0.08659   1.36866
   D20        0.33735   0.00222   0.00000   0.05322   0.05308   0.39043
   D21        2.51521  -0.00070   0.00000   0.02202   0.02207   2.53728
   D22       -1.74243   0.00168   0.00000   0.05132   0.05133  -1.69110
   D23       -0.01849   0.00060   0.00000   0.01758   0.01762  -0.00087
   D24        3.11458   0.00064   0.00000   0.01940   0.01952   3.13410
   D25        3.12994   0.00030   0.00000   0.00624   0.00615   3.13610
   D26       -0.02017   0.00034   0.00000   0.00806   0.00805  -0.01212
   D27       -0.01336   0.00035   0.00000   0.01287   0.01296  -0.00040
   D28        3.13148  -0.00013   0.00000  -0.00220  -0.00191   3.12957
   D29        3.13663   0.00034   0.00000   0.01122   0.01121  -3.13535
   D30       -0.00171  -0.00013   0.00000  -0.00384  -0.00367  -0.00538
   D31        3.12133  -0.00002   0.00000  -0.00094  -0.00098   3.12035
   D32       -0.02873   0.00001   0.00000   0.00082   0.00086  -0.02787
   D33       -0.08905  -0.00022   0.00000  -0.00707  -0.00707  -0.09611
   D34        3.04920   0.00026   0.00000   0.00843   0.00842   3.05762
   D35        2.76259  -0.00130   0.00000  -0.00078  -0.00097   2.76162
   D36        0.82356   0.00179   0.00000   0.03757   0.03741   0.86097
   D37       -1.29766  -0.00074   0.00000   0.00954   0.00965  -1.28800
   D38        0.62595  -0.00083   0.00000   0.00755   0.00742   0.63337
   D39       -1.31308   0.00226   0.00000   0.04590   0.04579  -1.26728
   D40        2.84889  -0.00028   0.00000   0.01787   0.01804   2.86693
   D41       -1.40041  -0.00049   0.00000   0.01459   0.01458  -1.38583
   D42        2.94375   0.00260   0.00000   0.05294   0.05296   2.99671
   D43        0.82253   0.00007   0.00000   0.02491   0.02520   0.84774
   D44       -1.25603  -0.00096   0.00000   0.00831   0.00870  -1.24732
   D45        0.79882   0.00333   0.00000   0.04068   0.04058   0.83940
   D46        2.96359  -0.00063   0.00000   0.00057   0.00028   2.96386
         Item               Value     Threshold  Converged?
 Maximum Force            0.041394     0.000450     NO 
 RMS     Force            0.006379     0.000300     NO 
 Maximum Displacement     0.243876     0.001800     NO 
 RMS     Displacement     0.069021     0.001200     NO 
 Predicted change in Energy=-6.698082D-03
 GradGradGradGradGradGradGradGradGradGradGradGradGradGradGradGradGradGrad

                          Input orientation:                          
 ---------------------------------------------------------------------
 Center     Atomic      Atomic             Coordinates (Angstroms)
 Number     Number       Type             X           Y           Z
 ---------------------------------------------------------------------
      1          6           0        1.521970   10.991216  106.594416
      2          6           0        1.097464   10.947975  105.272822
      3          6           0       -0.202083   10.539391  104.938204
      4          6           0       -1.055560   10.184623  105.989681
      5          6           0       -0.637612   10.231331  107.306633
      6          6           0        0.656142   10.636284  107.612451
      7          1           0        2.528235   11.306890  106.848594
      8          1           0        1.778772   11.217133  104.478511
      9          1           0       -2.068963    9.859770  105.780886
     10          8           0       -1.510941    9.882344  108.316698
     11          1           0       -1.050779    9.953437  109.165589
     12          8           0        0.993374   10.670411  108.954062
     13          1           0        1.930630   10.891193  109.027824
     14          6           0       -0.630270   10.387929  103.530435
     15          1           0       -1.719740   10.372118  103.449167
     16          1           0       -0.231605   11.172180  102.885156
     17          6           0       -0.092908    8.991398  102.862115
     18          1           0       -0.824226    8.884221  102.031244
     19          1           0       -0.377573    8.239940  103.612614
     20          7           0        1.260018    8.887155  102.527099
     21          1           0        1.425655    9.483061  101.715799
 ---------------------------------------------------------------------
                    Distance matrix (angstroms):
                    1          2          3          4          5
     1  C    0.000000
     2  C    1.388771   0.000000
     3  C    2.433011   1.402759   0.000000
     4  C    2.767663   2.394182   1.399961   0.000000
     5  C    2.397598   2.767753   2.427765   1.382470   0.000000
     6  C    1.382762   2.401204   2.810256   2.401521   1.389717
     7  H    1.084816   2.158468   3.419544   3.852376   3.374791
     8  H    2.143370   1.080535   2.143463   3.373892   3.848245
     9  H    3.851857   3.386529   2.158064   1.084486   2.124788
    10  O    3.659836   4.147834   3.682261   2.390345   1.380118
    11  H    3.782454   4.556061   4.351370   3.184315   1.924487
    12  O    2.439315   3.693156   4.192064   3.636162   2.359435
    13  H    2.469511   3.846743   4.625713   4.318204   3.161295
    14  C    3.792634   2.516869   1.479222   2.504017   3.779451
    15  H    4.559008   3.404992   2.132720   2.632585   4.008848
    16  H    4.106870   2.741832   2.148557   3.360394   4.538667
    17  C    4.531795   3.325160   2.591977   3.483124   4.646275
    18  H    5.546765   4.296488   3.402509   4.172983   5.447867
    19  H    4.479835   3.502210   2.659973   3.145140   4.204643
    20  N    4.586803   3.436917   3.268188   4.362890   5.315238
    21  H    5.107319   3.860841   3.761550   4.991462   6.006197
                    6          7          8          9         10
     6  C    0.000000
     7  H    2.130240   0.000000
     8  H    3.379240   2.487377   0.000000
     9  H    3.373989   4.936435   4.282952   0.000000
    10  O    2.400133   4.527649   5.228341   2.596582   0.000000
    11  H    2.406677   4.473214   5.618895   3.535773   0.968204
    12  O    1.383766   2.682144   4.576713   4.483759   2.701643
    13  H    1.921608   2.297602   4.563501   5.253873   3.656212
    14  C    4.287120   4.672347   2.718439   2.722741   4.892802
    15  H    4.800785   5.520435   3.743419   2.412752   4.896563
    16  H    4.839690   4.831533   2.565622   3.671996   5.727305
    17  C    5.082560   5.303198   3.327133   3.630164   5.705881
    18  H    6.034160   6.349425   4.266989   4.069506   6.401153
    19  H    4.775953   5.321792   3.776675   3.191559   5.109835
    20  N    5.411555   5.112614   3.083166   4.755547   6.495235
    21  H    6.057440   5.557663   3.280895   5.373937   7.235668
                   11         12         13         14         15
    11  H    0.000000
    12  O    2.176547   0.000000
    13  H    3.128444   0.965729   0.000000
    14  C    5.667502   5.668487   6.085456   0.000000
    15  H    5.770640   6.144415   6.687006   1.092611   0.000000
    16  H    6.449824   6.211599   6.518173   1.091040   1.781223
    17  C    6.448009   6.411778   6.761648   1.638813   2.213053
    18  H    7.217578   7.376961   7.782628   2.132212   2.241939
    19  H    5.850197   6.026420   6.456116   2.164362   2.524739
    20  N    7.109592   6.675099   6.835592   2.613847   3.454604
    21  H    7.864690   7.347728   7.463480   2.887649   3.699797
                   16         17         18         19         20
    16  H    0.000000
    17  C    2.185310   0.000000
    18  H    2.512991   1.112053   0.000000
    19  H    3.024654   1.099532   1.765030   0.000000
    20  N    2.752178   1.397681   2.142418   2.068559   0.000000
    21  H    2.639514   1.965148   2.349486   2.897393   1.020170
                   21
    21  H    0.000000
 Stoichiometry    C8H10NO2(1-)
 Framework group  C1[X(C8H10NO2)]
 Deg. of freedom    57
 Full point group                 C1      NOp   1
 Largest Abelian subgroup         C1      NOp   1
 Largest concise Abelian subgroup C1      NOp   1
                         Standard orientation:                         
 ---------------------------------------------------------------------
 Center     Atomic      Atomic             Coordinates (Angstroms)
 Number     Number       Type             X           Y           Z
 ---------------------------------------------------------------------
      1          6           0        0.885503    1.543468    0.257784
      2          6           0       -0.408770    1.144261    0.564667
      3          6           0       -0.771212   -0.210857    0.569524
      4          6           0        0.225279   -1.144293    0.260342
      5          6           0        1.515809   -0.750454   -0.040732
      6          6           0        1.849459    0.598616   -0.042339
      7          1           0        1.161182    2.592665    0.254249
      8          1           0       -1.162456    1.885034    0.789980
      9          1           0       -0.007201   -2.203504    0.248762
     10          8           0        2.473225   -1.700893   -0.331846
     11          1           0        3.306584   -1.252172   -0.535763
     12          8           0        3.164457    0.910816   -0.339191
     13          1           0        3.247831    1.871964   -0.382511
     14          6           0       -2.169515   -0.639989    0.790188
     15          1           0       -2.218845   -1.695425    1.068433
     16          1           0       -2.675620   -0.042464    1.549918
     17          6           0       -3.093593   -0.468417   -0.552328
     18          1           0       -3.907387   -1.188724   -0.316618
     19          1           0       -2.481641   -0.949120   -1.329123
     20          7           0       -3.483210    0.817702   -0.936524
     21          1           0       -4.179192    1.144437   -0.266002
 ---------------------------------------------------------------------
 Rotational constants (GHZ):           2.3190324           0.6274227           0.5392163
 Standard basis: def2TZVP (5D, 7F)
 There are   456 symmetry adapted cartesian basis functions of A   symmetry.
 There are   401 symmetry adapted basis functions of A   symmetry.
   401 basis functions,   641 primitive gaussians,   456 cartesian basis functions
    41 alpha electrons       41 beta electrons
       nuclear repulsion energy       585.4526561480 Hartrees.
 NAtoms=   21 NActive=   21 NUniq=   21 SFac= 1.00D+00 NAtFMM=   60 NAOKFM=F Big=F
 Integral buffers will be    131072 words long.
 Raffenetti 2 integral format.
 Two-electron integral symmetry is turned on.
 ------------------------------------------------------------------------------
 Polarizable Continuum Model (PCM)
 =================================
 Model                : PCM.
 Atomic radii         : SMD-Coulomb.
 Polarization charges : Total charges.
 Charge compensation  : None.
 Solution method      : On-the-fly selection.
 Cavity type          : VdW (van der Waals Surface) (Alpha=1.000).
 Cavity algorithm     : GePol (No added spheres)
                        Default sphere list used, NSphG=   21.
                        Lebedev-Laikov grids with approx.  5.0 points / Ang**2.
                        Smoothing algorithm: York/Karplus (Gamma=1.0000).
                        Polarization charges: spherical gaussians, with
                                              point-specific exponents (IZeta= 3).
                        Self-potential: point-specific (ISelfS= 7).
                        Self-field    : sphere-specific E.n sum rule (ISelfD= 2).
 1st derivatives      : Analytical E(r).r(x)/FMM algorithm (CHGder, D1EAlg=3).
                        Cavity 1st derivative terms included.
 Solvent              : Water, Eps=  78.355300 Eps(inf)=   1.777849
 ------------------------------------------------------------------------------
 ------------------------------------------------------------------------------
 Atomic radii for non-electrostatic terms: SMD-CDS.
 ------------------------------------------------------------------------------
 Nuclear repulsion after PCM non-electrostatic terms =      585.4556857147 Hartrees.
 One-electron integrals computed using PRISM.
   1 Symmetry operations used in ECPInt.
 ECPInt:  NShTT=   13041 NPrTT=   39612 LenC2=   12300 LenP2D=   28677.
 LDataN:  DoStor=T MaxTD1= 6 Len=  172
 NBasis=   401 RedAO= T EigKep=  8.51D-06  NBF=   401
 NBsUse=   401 1.00D-06 EigRej= -1.00D+00 NBFU=   401
 Initial guess from the checkpoint file:  "/home/data/vip13t32/docs/g16out/mol_for_md/DH_DOP/water.chk"
 B after Tr=     0.000000   -0.000000   -0.000000
         Rot=    0.999794    0.019550   -0.001189    0.005303 Ang=   2.33 deg.
 ExpMin= 9.52D-02 ExpMax= 2.70D+04 ExpMxC= 9.22D+02 IAcc=3 IRadAn=         5 AccDes= 0.00D+00
 Harris functional with IExCor= 1009 and IRadAn=       5 diagonalized for initial guess.
 HarFok:  IExCor= 1009 AccDes= 0.00D+00 IRadAn=         5 IDoV= 1 UseB2=F ITyADJ=14
 ICtDFT=  3500011 ScaDFX=  1.000000  1.000000  1.000000  1.000000
 FoFCou: FMM=F IPFlag=           0 FMFlag=      100000 FMFlg1=           0
         NFxFlg=           0 DoJE=T BraDBF=F KetDBF=T FulRan=T
         wScrn=  0.000000 ICntrl=       500 IOpCl=  0 I1Cent=   200000004 NGrid=           0
         NMat0=    1 NMatS0=      1 NMatT0=    0 NMatD0=    1 NMtDS0=    0 NMtDT0=    0
 Petite list used in FoFCou.
 Requested convergence on RMS density matrix=1.00D-08 within 128 cycles.
 Requested convergence on MAX density matrix=1.00D-06.
 Requested convergence on             energy=1.00D-06.
 No special actions if energy rises.
 Inv3:  Mode=1 IEnd=     8000067.
 Iteration    1 A*A^-1 deviation from unit magnitude is 4.88D-15 for   1611.
 Iteration    1 A*A^-1 deviation from orthogonality  is 2.21D-15 for   1624   1521.
 Iteration    1 A^-1*A deviation from unit magnitude is 4.88D-15 for   1611.
 Iteration    1 A^-1*A deviation from orthogonality  is 2.25D-15 for   1632   1592.
 Error on total polarization charges =  0.06065
 SCF Done:  E(RM062X) =  -516.127532568     A.U. after   13 cycles
            NFock= 13  Conv=0.48D-08     -V/T= 2.0049
 SMD-CDS (non-electrostatic) energy       (kcal/mol) =       1.90
 (included in total energy above)
   1 Symmetry operations used in ECPInt.
 ECPInt:  NShTT=   13041 NPrTT=   39612 LenC2=   12300 LenP2D=   28677.
 LDataN:  DoStor=T MaxTD1= 7 Len=  274
 D1PCM: PCM CHGder 1st derivatives, ID1Alg=3 FixD1E=F DoIter=F DoCFld=F I1PDM=0.
 Calling FoFJK, ICntrl=      2127 FMM=F ISym2X=0 I1Cent= 0 IOpClX= 0 NMat=1 NMatS=1 NMatT=0.
 ***** Axes restored to original set *****
 -------------------------------------------------------------------
 Center     Atomic                   Forces (Hartrees/Bohr)
 Number     Number              X              Y              Z
 -------------------------------------------------------------------
      1        6           0.000682822    0.000276358    0.000450362
      2        6          -0.005189149   -0.001315280   -0.002797730
      3        6           0.006199164    0.002793356    0.009205798
      4        6          -0.001088766   -0.001193693   -0.002890947
      5        6          -0.003027142   -0.001038868    0.004502727
      6        6           0.002757931    0.000820215    0.005148849
      7        1          -0.000307906    0.000036456   -0.000182840
      8        1           0.001169141    0.001517146    0.000333657
      9        1          -0.000229554    0.000126250    0.000307828
     10        8           0.001959214    0.000753015   -0.003758854
     11        1          -0.000040834    0.000234296   -0.000945667
     12        8          -0.000502632   -0.000447698   -0.005764181
     13        1          -0.000124827    0.000287070    0.001668577
     14        6           0.007321947   -0.019093058   -0.014131802
     15        1          -0.000170565    0.002244266    0.001480391
     16        1          -0.000677820    0.002702964    0.001227672
     17        6          -0.026381436    0.019653509    0.010740014
     18        1           0.003189433   -0.003378979   -0.000092110
     19        1           0.000190701   -0.002168790   -0.001688580
     20        7           0.015856233   -0.003754011   -0.003380697
     21        1          -0.001585954    0.000945474    0.000567531
 -------------------------------------------------------------------
 Cartesian Forces:  Max     0.026381436 RMS     0.006231574

 GradGradGradGradGradGradGradGradGradGradGradGradGradGradGradGradGradGrad
 Berny optimization.
 Using GEDIIS/GDIIS optimizer.
 FormGI is forming the generalized inverse of G from B-inverse, IUseBI=4.
 Internal  Forces:  Max     0.015003614 RMS     0.002642577
 Search for a local minimum.
 Step number   2 out of a maximum of  110
 All quantities printed in internal units (Hartrees-Bohrs-Radians)
 Mixed Optimization -- RFO/linear search
 Update second derivatives using D2CorX and points    1    2
 DE= -8.57D-03 DEPred=-6.70D-03 R= 1.28D+00
 TightC=F SS=  1.41D+00  RLast= 2.88D-01 DXNew= 5.0454D-01 8.6507D-01
 Trust test= 1.28D+00 RLast= 2.88D-01 DXMaxT set to 5.05D-01
 ITU=  1  0
 Use linear search instead of GDIIS.
     Eigenvalues ---    0.00229   0.01348   0.01564   0.01771   0.01904
     Eigenvalues ---    0.02049   0.02100   0.02170   0.02188   0.02192
     Eigenvalues ---    0.02243   0.02251   0.02304   0.02334   0.04407
     Eigenvalues ---    0.04432   0.05721   0.06387   0.08651   0.11091
     Eigenvalues ---    0.12715   0.13833   0.14562   0.15998   0.16000
     Eigenvalues ---    0.16000   0.16000   0.16363   0.16820   0.21958
     Eigenvalues ---    0.22360   0.22811   0.23552   0.24597   0.24775
     Eigenvalues ---    0.24983   0.25270   0.31047   0.33735   0.34627
     Eigenvalues ---    0.34800   0.35280   0.35953   0.36162   0.37204
     Eigenvalues ---    0.41401   0.42643   0.42938   0.44512   0.45645
     Eigenvalues ---    0.46640   0.47659   0.48213   0.50403   0.51185
     Eigenvalues ---    0.54527   0.55454
 RFO step:  Lambda=-3.69881785D-03 EMin= 2.29499541D-03
 Quartic linear search produced a step of  0.54692.
 Iteration  1 RMS(Cart)=  0.07590294 RMS(Int)=  0.00252799
 Iteration  2 RMS(Cart)=  0.00317838 RMS(Int)=  0.00038378
 Iteration  3 RMS(Cart)=  0.00001191 RMS(Int)=  0.00038374
 Iteration  4 RMS(Cart)=  0.00000001 RMS(Int)=  0.00038374
 Variable       Old X    -DE/DX   Delta X   Delta X   Delta X     New X
                                 (Linear)    (Quad)   (Total)
    R1        2.62440   0.00134   0.01360  -0.00273   0.01091   2.63530
    R2        2.61304   0.00044  -0.00611   0.00488  -0.00124   2.61180
    R3        2.05001  -0.00031  -0.00119  -0.00074  -0.00193   2.04807
    R4        2.65083  -0.00320  -0.00344  -0.00970  -0.01309   2.63774
    R5        2.04191   0.00087   0.00226   0.00250   0.00476   2.04667
    R6        2.64554  -0.00151  -0.00748  -0.00189  -0.00936   2.63619
    R7        2.79533   0.00598   0.02777   0.00981   0.03758   2.83290
    R8        2.61249   0.00019   0.00611  -0.00236   0.00371   2.61620
    R9        2.04938   0.00011   0.00406  -0.00158   0.00248   2.05186
   R10        2.62618   0.00191  -0.00848   0.01105   0.00252   2.62871
   R11        2.60805  -0.00492  -0.00395  -0.01345  -0.01740   2.59064
   R12        2.61494  -0.00413  -0.02677  -0.00086  -0.02763   2.58731
   R13        1.82964  -0.00081   0.00289  -0.00369  -0.00080   1.82884
   R14        1.82496   0.00009   0.00468  -0.00205   0.00264   1.82760
   R15        2.06474   0.00004   0.00102  -0.00035   0.00067   2.06541
   R16        2.06177   0.00096   0.00117   0.00356   0.00473   2.06650
   R17        3.09691  -0.01500  -0.05746  -0.09091  -0.14838   2.94853
   R18        2.10148  -0.00170  -0.01446  -0.00082  -0.01527   2.08620
   R19        2.07781   0.00029   0.00002   0.00128   0.00130   2.07911
   R20        2.64123   0.01467   0.04141   0.02130   0.06271   2.70394
   R21        1.92784  -0.00015  -0.01054   0.00473  -0.00581   1.92203
    A1        2.09582  -0.00006  -0.00301   0.00204  -0.00092   2.09490
    A2        2.11247  -0.00011   0.00434  -0.00396   0.00034   2.11280
    A3        2.07488   0.00017  -0.00135   0.00189   0.00050   2.07538
    A4        2.11677  -0.00011   0.00127  -0.00260  -0.00150   2.11528
    A5        2.09331  -0.00130  -0.00343  -0.00946  -0.01324   2.08007
    A6        2.07297   0.00142   0.00266   0.01237   0.01467   2.08764
    A7        2.04816   0.00160  -0.00222   0.00953   0.00718   2.05534
    A8        2.12353   0.00174   0.01371   0.00469   0.01813   2.14166
    A9        2.10875  -0.00331  -0.00989  -0.01338  -0.02359   2.08516
   A10        2.12071  -0.00054   0.00173  -0.00533  -0.00362   2.11709
   A11        2.09554   0.00062  -0.00143   0.00624   0.00477   2.10031
   A12        2.06693  -0.00007  -0.00029  -0.00084  -0.00116   2.06577
   A13        2.09546   0.00015   0.00132   0.00141   0.00266   2.09812
   A14        2.09132  -0.00171  -0.00877  -0.00629  -0.01503   2.07629
   A15        2.09639   0.00156   0.00745   0.00483   0.01230   2.10869
   A16        2.08944  -0.00104   0.00126  -0.00499  -0.00380   2.08564
   A17        2.15901   0.00149   0.01132   0.00200   0.01330   2.17231
   A18        2.03467  -0.00045  -0.01261   0.00300  -0.00961   2.02506
   A19        1.89902  -0.00091   0.03262  -0.02713   0.00550   1.90452
   A20        1.89253   0.00300   0.01918   0.01705   0.03623   1.92876
   A21        1.94003  -0.00181  -0.00889  -0.02419  -0.03355   1.90648
   A22        1.96437  -0.00268  -0.00200  -0.02629  -0.03002   1.93435
   A23        1.96108   0.00291   0.01096   0.01911   0.02995   1.99103
   A24        1.90790  -0.00027  -0.00651  -0.01051  -0.01831   1.88959
   A25        1.85906  -0.00014  -0.00033   0.00631   0.00645   1.86552
   A26        1.82506   0.00232   0.00786   0.04031   0.04816   1.87323
   A27        1.74283   0.00454   0.00495   0.04796   0.05271   1.79554
   A28        1.79174   0.00289  -0.01349   0.04021   0.02649   1.81823
   A29        2.06997  -0.00159   0.02015  -0.01727   0.00281   2.07278
   A30        1.84819  -0.00141  -0.01784  -0.00815  -0.02736   1.82083
   A31        2.03789  -0.00241  -0.00818  -0.02533  -0.03424   2.00366
   A32        1.94254  -0.00115   0.01030  -0.02522  -0.01525   1.92729
   A33        1.87991  -0.00346  -0.01599  -0.02318  -0.03918   1.84074
    D1       -0.00763   0.00013   0.00011   0.00579   0.00577  -0.00186
    D2       -3.13182  -0.00058  -0.01741  -0.01583  -0.03315   3.11822
    D3        3.14051   0.00028   0.00367   0.01149   0.01515  -3.12753
    D4        0.01632  -0.00043  -0.01385  -0.01012  -0.02376  -0.00744
    D5        0.00458  -0.00012  -0.01196   0.00667  -0.00515  -0.00057
    D6       -3.12451   0.00003  -0.00326   0.00591   0.00290  -3.12161
    D7        3.13977  -0.00027  -0.01544   0.00107  -0.01433   3.12544
    D8        0.01068  -0.00012  -0.00675   0.00031  -0.00628   0.00439
    D9        0.00623  -0.00002   0.01601  -0.01766  -0.00165   0.00457
   D10       -3.05625  -0.00037  -0.00208  -0.02896  -0.03173  -3.08798
   D11        3.13061   0.00066   0.03316   0.00350   0.03716  -3.11542
   D12        0.06814   0.00030   0.01507  -0.00780   0.00708   0.07521
   D13       -0.00199  -0.00009  -0.02091   0.01778  -0.00302  -0.00501
   D14       -3.13888  -0.00027  -0.01453   0.00071  -0.01362   3.13068
   D15        3.06120   0.00050  -0.00137   0.02983   0.02799   3.08918
   D16       -0.07569   0.00032   0.00501   0.01276   0.01739  -0.05830
   D17       -2.83299   0.00283   0.04832   0.07305   0.12061  -2.71238
   D18       -0.68615  -0.00084   0.03136   0.02204   0.05425  -0.63190
   D19        1.36866   0.00229   0.04736   0.06878   0.11598   1.48463
   D20        0.39043   0.00223   0.02903   0.06031   0.08862   0.47906
   D21        2.53728  -0.00144   0.01207   0.00929   0.02226   2.55954
   D22       -1.69110   0.00169   0.02807   0.05604   0.08399  -1.60712
   D23       -0.00087   0.00009   0.00964  -0.00599   0.00360   0.00274
   D24        3.13410  -0.00004   0.01068  -0.01486  -0.00406   3.13004
   D25        3.13610   0.00027   0.00337   0.01082   0.01402  -3.13307
   D26       -0.01212   0.00014   0.00440   0.00196   0.00635  -0.00577
   D27       -0.00040   0.00001   0.00709  -0.00659   0.00054   0.00014
   D28        3.12957  -0.00012  -0.00105  -0.00589  -0.00669   3.12288
   D29       -3.13535   0.00016   0.00613   0.00234   0.00845  -3.12689
   D30       -0.00538   0.00003  -0.00201   0.00305   0.00123  -0.00415
   D31        3.12035   0.00020  -0.00054   0.01347   0.01287   3.13322
   D32       -0.02787   0.00006   0.00047   0.00458   0.00512  -0.02276
   D33       -0.09611   0.00024  -0.00386   0.02523   0.02137  -0.07474
   D34        3.05762   0.00040   0.00461   0.02454   0.02914   3.08676
   D35        2.76162   0.00052  -0.00053   0.03947   0.03860   2.80022
   D36        0.86097  -0.00009   0.02046   0.02337   0.04321   0.90418
   D37       -1.28800   0.00010   0.00528   0.03483   0.03991  -1.24809
   D38        0.63337   0.00110   0.00406   0.05365   0.05772   0.69109
   D39       -1.26728   0.00049   0.02504   0.03755   0.06233  -1.20496
   D40        2.86693   0.00067   0.00987   0.04900   0.05903   2.92596
   D41       -1.38583   0.00041   0.00798   0.04449   0.05293  -1.33289
   D42        2.99671  -0.00020   0.02896   0.02839   0.05754   3.05425
   D43        0.84774  -0.00002   0.01378   0.03984   0.05424   0.90198
   D44       -1.24732   0.00006   0.00476   0.01220   0.01734  -1.22998
   D45        0.83940   0.00301   0.02219   0.04302   0.06437   0.90377
   D46        2.96386  -0.00172   0.00015  -0.00859  -0.00798   2.95589
         Item               Value     Threshold  Converged?
 Maximum Force            0.015004     0.000450     NO 
 RMS     Force            0.002643     0.000300     NO 
 Maximum Displacement     0.313481     0.001800     NO 
 RMS     Displacement     0.075584     0.001200     NO 
 Predicted change in Energy=-3.499500D-03
 GradGradGradGradGradGradGradGradGradGradGradGradGradGradGradGradGradGrad

                          Input orientation:                          
 ---------------------------------------------------------------------
 Center     Atomic      Atomic             Coordinates (Angstroms)
 Number     Number       Type             X           Y           Z
 ---------------------------------------------------------------------
      1          6           0        1.537640   11.037773  106.616726
      2          6           0        1.132458   10.973056  105.283913
      3          6           0       -0.139817   10.515999  104.936394
      4          6           0       -0.996111   10.130711  105.968075
      5          6           0       -0.599273   10.192268  107.292986
      6          6           0        0.673296   10.647526  107.622126
      7          1           0        2.521377   11.405201  106.884800
      8          1           0        1.812919   11.302871  104.508543
[...]
     11          1           0        3.098065   -1.541914   -0.428858
     12          8           0        3.216405    0.629199   -0.424060
     13          1           0        3.456962    1.561952   -0.497493
     14          6           0       -2.237422   -0.190977    0.917456
     15          1           0       -2.298840   -0.994427    1.660106
     16          1           0       -2.683411    0.702960    1.363935
     17          6           0       -3.087210   -0.588347   -0.319162
     18          1           0       -4.033272   -0.973605    0.112769
     19          1           0       -2.601838   -1.475540   -0.750766
     20          7           0       -3.258633    0.407004   -1.344537
     21          1           0       -3.763650    1.175192   -0.897643
 ---------------------------------------------------------------------
 Rotational constants (GHZ):           2.2291433           0.6432774           0.5615895

 **********************************************************************

            Population analysis using the SCF Density.

 **********************************************************************

 Orbital symmetries:
       Occupied  (A) (A) (A) (A) (A) (A) (A) (A) (A) (A) (A) (A)
                 (A) (A) (A) (A) (A) (A) (A) (A) (A) (A) (A) (A)
                 (A) (A) (A) (A) (A) (A) (A) (A) (A) (A) (A) (A)
                 (A) (A) (A) (A) (A)
       Virtual   (A) (A) (A) (A) (A) (A) (A) (A) (A) (A) (A) (A)
                 (A) (A) (A) (A) (A) (A) (A) (A) (A) (A) (A) (A)
                 (A) (A) (A) (A) (A) (A) (A) (A) (A) (A) (A) (A)
                 (A) (A) (A) (A) (A) (A) (A) (A) (A) (A) (A) (A)
                 (A) (A) (A) (A) (A) (A) (A) (A) (A) (A) (A) (A)
                 (A) (A) (A) (A) (A) (A) (A) (A) (A) (A) (A) (A)
                 (A) (A) (A) (A) (A) (A) (A) (A) (A) (A) (A) (A)
                 (A) (A) (A) (A) (A) (A) (A) (A) (A) (A) (A) (A)
                 (A) (A) (A) (A) (A) (A) (A) (A) (A) (A) (A) (A)
                 (A) (A) (A) (A) (A) (A) (A) (A) (A) (A) (A) (A)
                 (A) (A) (A) (A) (A) (A) (A) (A) (A) (A) (A) (A)
                 (A) (A) (A) (A) (A) (A) (A) (A) (A) (A) (A) (A)
                 (A) (A) (A) (A) (A) (A) (A) (A) (A) (A) (A) (A)
                 (A) (A) (A) (A) (A) (A) (A) (A) (A) (A) (A) (A)
                 (A) (A) (A) (A) (A) (A) (A) (A) (A) (A) (A) (A)
                 (A) (A) (A) (A) (A) (A) (A) (A) (A) (A) (A) (A)
                 (A) (A) (A) (A) (A) (A) (A) (A) (A) (A) (A) (A)
                 (A) (A) (A) (A) (A) (A) (A) (A) (A) (A) (A) (A)
                 (A) (A) (A) (A) (A) (A) (A) (A) (A) (A) (A) (A)
                 (A) (A) (A) (A) (A) (A) (A) (A) (A) (A) (A) (A)
                 (A) (A) (A) (A) (A) (A) (A) (A) (A) (A) (A) (A)
                 (A) (A) (A) (A) (A) (A) (A) (A) (A) (A) (A) (A)
                 (A) (A) (A) (A) (A) (A) (A) (A) (A) (A) (A) (A)
                 (A) (A) (A) (A) (A) (A) (A) (A) (A) (A) (A) (A)
                 (A) (A) (A) (A) (A) (A) (A) (A) (A) (A) (A) (A)
                 (A) (A) (A) (A) (A) (A) (A) (A) (A) (A) (A) (A)
                 (A) (A) (A) (A) (A) (A) (A) (A) (A) (A) (A) (A)
                 (A) (A) (A) (A) (A) (A) (A) (A) (A) (A) (A) (A)
                 (A) (A) (A) (A) (A) (A) (A) (A) (A) (A) (A) (A)
                 (A) (A) (A) (A) (A) (A) (A) (A) (A) (A) (A) (A)
 The electronic state is 1-A.
 Alpha  occ. eigenvalues --  -19.65463 -19.65129 -14.61757 -10.59637 -10.59519
 Alpha  occ. eigenvalues --  -10.53531 -10.53372 -10.52901 -10.52665 -10.51561
 Alpha  occ. eigenvalues --  -10.50618  -1.19373  -1.16578  -0.95549  -0.89181
 Alpha  occ. eigenvalues --   -0.84332  -0.83476  -0.76469  -0.70934  -0.68514
 Alpha  occ. eigenvalues --   -0.64148  -0.61934  -0.59066  -0.55233  -0.52359
 Alpha  occ. eigenvalues --   -0.51532  -0.49785  -0.48641  -0.47317  -0.45612
 Alpha  occ. eigenvalues --   -0.45333  -0.44645  -0.42901  -0.40276  -0.38880
 Alpha  occ. eigenvalues --   -0.38169  -0.36720  -0.29341  -0.27347  -0.25643
 Alpha  occ. eigenvalues --   -0.19496
 Alpha virt. eigenvalues --    0.02929   0.04822   0.07682   0.09198   0.10402
 Alpha virt. eigenvalues --    0.11303   0.12687   0.13756   0.14592   0.15544
 Alpha virt. eigenvalues --    0.17410   0.18146   0.18806   0.20289   0.21301
 Alpha virt. eigenvalues --    0.21397   0.22491   0.23731   0.25093   0.25716
 Alpha virt. eigenvalues --    0.27216   0.28000   0.28541   0.29905   0.30981
 Alpha virt. eigenvalues --    0.31819   0.32347   0.34167   0.35969   0.36274
 Alpha virt. eigenvalues --    0.36434   0.36961   0.37650   0.38264   0.39161
 Alpha virt. eigenvalues --    0.39806   0.40343   0.41377   0.41982   0.43005
 Alpha virt. eigenvalues --    0.44250   0.45061   0.45424   0.46186   0.47750
 Alpha virt. eigenvalues --    0.48407   0.48839   0.49404   0.50272   0.51193
 Alpha virt. eigenvalues --    0.52692   0.53375   0.53911   0.54692   0.56205
 Alpha virt. eigenvalues --    0.57306   0.58078   0.58839   0.59001   0.60632
 Alpha virt. eigenvalues --    0.61715   0.62131   0.63097   0.65222   0.66143
 Alpha virt. eigenvalues --    0.66536   0.67670   0.69773   0.70512   0.73342
 Alpha virt. eigenvalues --    0.75008   0.76110   0.76984   0.77826   0.78799
 Alpha virt. eigenvalues --    0.78942   0.81551   0.82191   0.84378   0.86675
 Alpha virt. eigenvalues --    0.87575   0.88527   0.90393   0.91347   0.92096
 Alpha virt. eigenvalues --    0.94118   0.94356   0.95462   0.98949   1.00363
 Alpha virt. eigenvalues --    1.04615   1.06052   1.07633   1.09561   1.11506
 Alpha virt. eigenvalues --    1.13138   1.13692   1.14847   1.16492   1.19229
 Alpha virt. eigenvalues --    1.20778   1.21741   1.23739   1.24781   1.26900
 Alpha virt. eigenvalues --    1.28673   1.29501   1.31000   1.32645   1.35313
 Alpha virt. eigenvalues --    1.36704   1.38734   1.39497   1.40965   1.42862
 Alpha virt. eigenvalues --    1.44142   1.45513   1.46166   1.47968   1.49826
 Alpha virt. eigenvalues --    1.51415   1.53746   1.56402   1.56727   1.58066
 Alpha virt. eigenvalues --    1.59215   1.61161   1.64351   1.65094   1.65599
 Alpha virt. eigenvalues --    1.68517   1.69581   1.70168   1.72296   1.72889
 Alpha virt. eigenvalues --    1.73883   1.75213   1.75901   1.76858   1.79423
 Alpha virt. eigenvalues --    1.80638   1.81828   1.85930   1.86955   1.88726
 Alpha virt. eigenvalues --    1.90621   1.91207   1.91910   1.93404   1.95493
 Alpha virt. eigenvalues --    1.96507   1.99356   2.01101   2.01260   2.03496
 Alpha virt. eigenvalues --    2.04526   2.05880   2.07849   2.10148   2.10938
 Alpha virt. eigenvalues --    2.13786   2.15280   2.15714   2.18014   2.19904
 Alpha virt. eigenvalues --    2.20268   2.21647   2.21694   2.23395   2.25736
 Alpha virt. eigenvalues --    2.27092   2.29894   2.32170   2.33580   2.35192
 Alpha virt. eigenvalues --    2.36270   2.37815   2.42801   2.44359   2.47135
 Alpha virt. eigenvalues --    2.48075   2.49280   2.50051   2.52383   2.53529
 Alpha virt. eigenvalues --    2.54256   2.56617   2.58068   2.59512   2.62126
 Alpha virt. eigenvalues --    2.64950   2.66204   2.67003   2.68279   2.70085
 Alpha virt. eigenvalues --    2.70678   2.71451   2.73151   2.73687   2.74960
 Alpha virt. eigenvalues --    2.77066   2.78286   2.78360   2.79298   2.81690
 Alpha virt. eigenvalues --    2.82650   2.84603   2.87267   2.88569   2.90648
 Alpha virt. eigenvalues --    2.91175   2.91552   2.93301   2.94373   2.94878
 Alpha virt. eigenvalues --    2.96232   2.99710   3.00811   3.01371   3.03503
 Alpha virt. eigenvalues --    3.06073   3.06197   3.07328   3.09499   3.09868
 Alpha virt. eigenvalues --    3.12034   3.14807   3.16717   3.18958   3.19149
 Alpha virt. eigenvalues --    3.20372   3.20763   3.22405   3.24196   3.24677
 Alpha virt. eigenvalues --    3.25277   3.26744   3.28315   3.30659   3.32907
 Alpha virt. eigenvalues --    3.33667   3.34392   3.35416   3.36744   3.38566
 Alpha virt. eigenvalues --    3.39792   3.40360   3.42534   3.42874   3.44709
 Alpha virt. eigenvalues --    3.46552   3.46952   3.48498   3.50308   3.51437
 Alpha virt. eigenvalues --    3.53599   3.54868   3.55889   3.57341   3.57887
 Alpha virt. eigenvalues --    3.62494   3.66069   3.67528   3.69725   3.73286
 Alpha virt. eigenvalues --    3.73642   3.78980   3.80406   3.84053   3.86210
 Alpha virt. eigenvalues --    3.87982   3.90111   3.93687   3.94749   3.97783
 Alpha virt. eigenvalues --    3.98447   4.00055   4.04350   4.07479   4.09747
 Alpha virt. eigenvalues --    4.11533   4.13958   4.15357   4.16715   4.18628
 Alpha virt. eigenvalues --    4.20033   4.21011   4.22532   4.24132   4.30211
 Alpha virt. eigenvalues --    4.33821   4.34609   4.35833   4.37240   4.41750
 Alpha virt. eigenvalues --    4.45682   4.46278   4.50481   4.52847   4.56861
 Alpha virt. eigenvalues --    4.58568   4.63170   4.65999   4.69319   4.73456
 Alpha virt. eigenvalues --    4.78000   4.79940   4.85232   4.86955   4.88734
 Alpha virt. eigenvalues --    4.91010   4.94273   4.95013   4.96712   5.07633
 Alpha virt. eigenvalues --    5.09559   5.14040   5.21214   5.24046   5.24819
 Alpha virt. eigenvalues --    5.29133   5.29527   5.31455   5.35546   5.42568
 Alpha virt. eigenvalues --    5.44270   5.45128   5.52240   5.52579   5.58674
 Alpha virt. eigenvalues --    5.66833   5.70883   5.84392   5.86908   6.03481
 Alpha virt. eigenvalues --    6.15004   6.29493   6.38656   6.40273   6.43520
 Alpha virt. eigenvalues --    6.50984   6.65686   6.75094   6.76899   6.81803
 Alpha virt. eigenvalues --    6.96164   6.98986   7.20681   7.34135  22.26602
 Alpha virt. eigenvalues --   22.58540  22.67892  22.84702  22.89688  22.99858
 Alpha virt. eigenvalues --   23.11196  23.52347  32.10130  43.99084  44.21276
          Condensed to atoms (all electrons):
               1          2          3          4          5          6
     1  C    5.704678  -0.317353   0.475618  -0.292949   0.288011  -0.000686
     2  C   -0.317353   7.023880  -0.930564   0.315452  -0.429283   0.468952
     3  C    0.475618  -0.930564   6.318822   0.087713   0.279514  -0.431064
     4  C   -0.292949   0.315452   0.087713   5.521519   0.210401   0.211308
     5  C    0.288011  -0.429283   0.279514   0.210401   5.120178   0.077684
     6  C   -0.000686   0.468952  -0.431064   0.211308   0.077684   5.438583
     7  H    0.430834  -0.056412   0.029111  -0.005403   0.010112  -0.049915
     8  H   -0.033053   0.468996  -0.095867   0.014634  -0.006847   0.013515
     9  H   -0.014008   0.035432  -0.053896   0.425219  -0.066943   0.027851
    10  O    0.015568  -0.004038   0.001830  -0.056434   0.335548  -0.115871
    11  H    0.005646  -0.001697   0.001199   0.001635  -0.017109  -0.031823
    12  O   -0.083571   0.009529   0.000969  -0.002128  -0.060575   0.278749
    13  H   -0.004182   0.003580  -0.000348  -0.000052   0.004751  -0.032171
    14  C    0.072803  -0.477789   0.346309  -0.119598   0.072350  -0.038147
    15  H   -0.006388   0.069190  -0.031752  -0.028250  -0.006355   0.003052
    16  H    0.002263  -0.020327  -0.074956   0.008407   0.000392  -0.000371
    17  C   -0.007203   0.058661  -0.040305  -0.005083  -0.006321   0.004440
    18  H   -0.000772   0.012736   0.025420   0.001770  -0.001193   0.000296
    19  H    0.001177  -0.003634  -0.011598  -0.011749   0.005774  -0.000900
    20  N   -0.020592   0.199203  -0.137825   0.018811  -0.009995   0.007082
    21  H    0.000371   0.004148  -0.013320  -0.001639   0.000315  -0.000057
               7          8          9         10         11         12
     1  C    0.430834  -0.033053  -0.014008   0.015568   0.005646  -0.083571
     2  C   -0.056412   0.468996   0.035432  -0.004038  -0.001697   0.009529
     3  C    0.029111  -0.095867  -0.053896   0.001830   0.001199   0.000969
     4  C   -0.005403   0.014634   0.425219  -0.056434   0.001635  -0.002128
     5  C    0.010112  -0.006847  -0.066943   0.335548  -0.017109  -0.060575
     6  C   -0.049915   0.013515   0.027851  -0.115871  -0.031823   0.278749
     7  H    0.454527  -0.005043  -0.000059  -0.000006   0.000030  -0.002484
     8  H   -0.005043   0.458884   0.000177   0.000010  -0.000006  -0.000149
     9  H   -0.000059   0.000177   0.464527   0.006371  -0.000835  -0.000137
    10  O   -0.000006   0.000010   0.006371   8.015338   0.317765  -0.003593
    11  H    0.000030  -0.000006  -0.000835   0.317765   0.327803   0.012827
    12  O   -0.002484  -0.000149  -0.000137  -0.003593   0.012827   8.072965
    13  H    0.002428  -0.000027   0.000032  -0.000358  -0.000845   0.316519
    14  C    0.000982  -0.013046  -0.023365  -0.000045   0.000064   0.000005
    15  H   -0.000074   0.002302   0.004602  -0.000030  -0.000001  -0.000001
    16  H    0.000017  -0.000829   0.000053   0.000005  -0.000001  -0.000000
    17  C   -0.000090   0.000925   0.004738   0.000015  -0.000007  -0.000001
    18  H   -0.000008   0.000549   0.000966  -0.000001  -0.000000   0.000000
    19  H    0.000012  -0.000099  -0.000241   0.000002   0.000002   0.000001
    20  N   -0.000483   0.011623   0.001797  -0.000005  -0.000001  -0.000001
    21  H    0.000001   0.000648   0.000009   0.000000   0.000000   0.000000
              13         14         15         16         17         18
     1  C   -0.004182   0.072803  -0.006388   0.002263  -0.007203  -0.000772
     2  C    0.003580  -0.477789   0.069190  -0.020327   0.058661   0.012736
     3  C   -0.000348   0.346309  -0.031752  -0.074956  -0.040305   0.025420
     4  C   -0.000052  -0.119598  -0.028250   0.008407  -0.005083   0.001770
     5  C    0.004751   0.072350  -0.006355   0.000392  -0.006321  -0.001193
     6  C   -0.032171  -0.038147   0.003052  -0.000371   0.004440   0.000296
     7  H    0.002428   0.000982  -0.000074   0.000017  -0.000090  -0.000008
     8  H   -0.000027  -0.013046   0.002302  -0.000829   0.000925   0.000549
     9  H    0.000032  -0.023365   0.004602   0.000053   0.004738   0.000966
    10  O   -0.000358  -0.000045  -0.000030   0.000005   0.000015  -0.000001
    11  H   -0.000845   0.000064  -0.000001  -0.000001  -0.000007  -0.000000
    12  O    0.316519   0.000005  -0.000001  -0.000000  -0.000001   0.000000
    13  H    0.317938   0.000001  -0.000000   0.000000  -0.000000  -0.000000
    14  C    0.000001   6.281733   0.250964   0.474171  -0.008465  -0.174479
    15  H   -0.000000   0.250964   0.602840  -0.025133  -0.008210   0.013128
    16  H    0.000000   0.474171  -0.025133   0.527709  -0.038640  -0.008503
    17  C   -0.000000  -0.008465  -0.008210  -0.038640   5.071189   0.483376
    18  H   -0.000000  -0.174479   0.013128  -0.008503   0.483376   0.704148
    19  H    0.000000  -0.048838   0.003210   0.007605   0.416409  -0.065172
    20  N   -0.000000  -0.249502   0.021725  -0.011801   0.352903  -0.059190
    21  H   -0.000000  -0.005541   0.001132   0.005298  -0.096243  -0.013959
              19         20         21
     1  C    0.001177  -0.020592   0.000371
     2  C   -0.003634   0.199203   0.004148
     3  C   -0.011598  -0.137825  -0.013320
     4  C   -0.011749   0.018811  -0.001639
     5  C    0.005774  -0.009995   0.000315
     6  C   -0.000900   0.007082  -0.000057
     7  H    0.000012  -0.000483   0.000001
     8  H   -0.000099   0.011623   0.000648
     9  H   -0.000241   0.001797   0.000009
    10  O    0.000002  -0.000005   0.000000
    11  H    0.000002  -0.000001   0.000000
    12  O    0.000001  -0.000001   0.000000
    13  H    0.000000  -0.000000  -0.000000
    14  C   -0.048838  -0.249502  -0.005541
    15  H    0.003210   0.021725   0.001132
    16  H    0.007605  -0.011801   0.005298
    17  C    0.416409   0.352903  -0.096243
    18  H   -0.065172  -0.059190  -0.013959
    19  H    0.633273  -0.052996   0.016506
    20  N   -0.052996   7.711727   0.329891
    21  H    0.016506   0.329891   0.593294
 Mulliken charges:
               1
     1  C   -0.216210
     2  C   -0.428661
     3  C    0.254990
     4  C   -0.293585
     5  C    0.199591
     6  C    0.169494
     7  H    0.191923
     8  H    0.182702
     9  H    0.187711
    10  O   -0.512072
    11  H    0.385353
    12  O   -0.538926
    13  H    0.392736
    14  C   -0.340566
    15  H    0.134049
    16  H    0.154639
    17  C   -0.182088
    18  H    0.080889
    19  H    0.111256
    20  N   -1.112370
    21  H    0.179144
 Sum of Mulliken charges =  -1.00000
 Mulliken charges with hydrogens summed into heavy atoms:
               1
     1  C   -0.024287
     2  C   -0.245958
     3  C    0.254990
     4  C   -0.105874
     5  C    0.199591
     6  C    0.169494
    10  O   -0.126720
    12  O   -0.146190
    14  C   -0.051877
    17  C    0.010057
    20  N   -0.933226
 Electronic spatial extent (au):  <R**2>=           2088.7196
 Charge=             -1.0000 electrons
 Dipole moment (field-independent basis, Debye):
    X=             14.7797    Y=              1.9523    Z=              6.8890  Tot=             16.4228
 Quadrupole moment (field-independent basis, Debye-Ang):
   XX=           -104.5544   YY=            -65.0063   ZZ=            -85.3243
   XY=             11.1217   XZ=            -26.7142   YZ=              2.1420
 Traceless Quadrupole moment (field-independent basis, Debye-Ang):
   XX=            -19.5927   YY=             19.9554   ZZ=             -0.3626
   XY=             11.1217   XZ=            -26.7142   YZ=              2.1420
 Octapole moment (field-independent basis, Debye-Ang**2):
  XXX=            227.4958  YYY=             23.0080  ZZZ=             23.6199  XYY=             26.4708
  XXY=             15.2450  XXZ=             72.2651  XZZ=             55.9535  YZZ=             -8.0369
  YYZ=              1.8866  XYZ=            -10.4915
 Hexadecapole moment (field-independent basis, Debye-Ang**3):
 XXXX=          -2455.7844 YYYY=           -512.2488 ZZZZ=           -312.8972 XXXY=             42.7060
 XXXZ=           -330.2641 YYYX=             52.0709 YYYZ=             -1.5289 ZZZX=           -109.7262
 ZZZY=              9.0404 XXYY=           -373.4760 XXZZ=           -536.3960 YYZZ=           -138.0919
 XXYZ=             18.5043 YYXZ=            -28.8170 ZZXY=             13.0722
 N-N= 5.877068022608D+02 E-N=-2.393099340940D+03  KE= 5.136442473888D+02
 Unable to Open any file for archive entry.
 1\1\GINC-BIO3-HORSEA-12U\FOpt\RM062X\def2TZVP\C8H10N1O2(1-)\VIP13T32\0
 8-Apr-2023\0\\# opt m062x/def2tzvp scrf=(smd,solvent=water)\\Title Car
 d Required\\-1,1\C,1.5062307077,11.1739828611,106.6123262257\C,1.11443
 16505,11.1155873288,105.2770709751\C,-0.1037046031,10.5525858108,104.9
 089374766\C,-0.9233468806,10.0400391748,105.9177789156\C,-0.541645896,
 10.0938288012,107.245268373\C,0.6822308392,10.664626088,107.5980074778
 \H,2.45378539,11.6172004039,106.8969953136\H,1.7682334887,11.520198046
 ,104.5139268066\H,-1.8815179745,9.5938238335,105.673951806\O,-1.375429
 8074,9.5880429,108.2105341602\H,-0.9574613235,9.7020666885,109.0756285
 705\O,0.9786295886,10.6823621607,108.9402370672\H,1.8504214212,11.0743
 897342,109.0801676688\C,-0.5271001036,10.4328390679,103.4733280266\H,-
 1.5812026555,10.7194867084,103.3865251343\H,0.0536048283,11.1295986948
 ,102.8612155384\C,-0.3473232488,9.0077978141,102.8849358104\H,-0.91524
 54235,9.0325799573,101.9326381275\H,-0.927544352,8.3347415371,103.5324
 83334\N,0.9986509986,8.5119158037,102.7667835762\H,1.4653033557,9.1423
 065852,102.1112596159\\Version=ES64L-G16RevC.01\State=1-A\HF=-516.1324
 356\RMSD=6.987e-09\RMSF=1.071e-05\Dipole=-0.3643068,3.8507252,5.175593
 6\Quadrupole=11.4308144,-2.0702549,-9.3605594,9.5251802,13.9778291,-16
 .8575451\PG=C01 [X(C8H10N1O2)]\\@
 The archive entry for this job was punched.


 FESTINA LENTE!
     - IMPERATOR AUGUSTUS 
 Job cpu time:       0 days  6 hours 45 minutes 31.1 seconds.
 Elapsed time:       0 days  0 hours 26 minutes 31.4 seconds.
 File lengths (MBytes):  RWF=    145 Int=      0 D2E=      0 Chk=     15 Scr=      1
 Normal termination of Gaussian 16 at Sat Apr  8 01:28:51 2023.
