 Entering Gaussian System, Link 0=g16
 Input=DH_DOP_vac.gjf
 Output=DH_DOP_vac.log
 Initial command:
 /home/data/vip13t32/docs/gaussian/gaussian/g16/l1.exe "/home/data/vip13t32/Rtmp/Gau-2623102.inp" -scrdir="/home/data/vip13t32/Rtmp/"
 Entering Link 1 = /home/data/vip13t32/docs/gaussian/gaussian/g16/l1.exe PID=   2623104.
  
 Copyright (c) 1988-2019, Gaussian, Inc.  All Rights Reserved.
  
 This is part of the Gaussian(R) 16 program.  It is based on
 the Gaussian(R) 09 system (copyright 2009, Gaussian, Inc.),
 the Gaussian(R) 03 system (copyright 2003, Gaussian, Inc.),
 the Gaussian(R) 98 system (copyright 1998, Gaussian, Inc.),
 the Gaussian(R) 94 system (copyright 1995, Gaussian, Inc.),
 the Gaussian 92(TM) system (copyright 1992, Gaussian, Inc.),
 the Gaussian 90(TM) system (copyright 1990, Gaussian, Inc.),
 the Gaussian 88(TM) system (copyright 1988, Gaussian, Inc.),
 the Gaussian 86(TM) system (copyright 1986, Carnegie Mellon
 University), and the Gaussian 82(TM) system (copyright 1983,
 Carnegie Mellon University). Gaussian is a federally registered
 trademark of Gaussian, Inc.
  
 This software contains proprietary and confidential information,
 including trade secrets, belonging to Gaussian, Inc.
  
 This software is provided under written license and may be
 used, copied, transmitted, or stored only in accord with that
 written license.
  
 The following legend is applicable only to US Government
 contracts under FAR:
  
                    RESTRICTED RIGHTS LEGEND
  
 Use, reproduction and disclosure by the US Government is
 subject to restrictions as set forth in subparagraphs (a)
 and (c) of the Commercial Computer Software - Restricted
 Rights clause in FAR 52.227-19.
  
 Gaussian, Inc.
 340 Quinnipiac St., Bldg. 40, Wallingford CT 06492
  
  
 ---------------------------------------------------------------
 Warning -- This program may not be used in any manner that
 competes with the business of Gaussian, Inc. or will provide
 assistance to any competitor of Gaussian, Inc.  The licensee
 of this program is prohibited from giving any competitor of
 Gaussian, Inc. access to this program.  By using this program,
 the user acknowledges that Gaussian, Inc. is engaged in the
 business of creating and licensing software in the field of
 computational chemistry and represents and warrants to the
 licensee that it is not a competitor of Gaussian, Inc. and that
 it will not use this program in any manner prohibited above.
 ---------------------------------------------------------------
  

 Cite this work as:
 Gaussian 16, Revision C.01,
 M. J. Frisch, G. W. Trucks, H. B. Schlegel, G. E. Scuseria, 
 M. A. Robb, J. R. Cheeseman, G. Scalmani, V. Barone, 
 G. A. Petersson, H. Nakatsuji, X. Li, M. Caricato, A. V. Marenich, 
 J. Bloino, B. G. Janesko, R. Gomperts, B. Mennucci, H. P. Hratchian, 
 J. V. Ortiz, A. F. Izmaylov, J. L. Sonnenberg, D. Williams-Young, 
 F. Ding, F. Lipparini, F. Egidi, J. Goings, B. Peng, A. Petrone, 
 T. Henderson, D. Ranasinghe, V. G. Zakrzewski, J. Gao, N. Rega, 
 G. Zheng, W. Liang, M. Hada, M. Ehara, K. Toyota, R. Fukuda, 
 J. Hasegawa, M. Ishida, T. Nakajima, Y. Honda, O. Kitao, H. Nakai, 
 T. Vreven, K. Throssell, J. A. Montgomery, Jr., J. E. Peralta, 
 F. Ogliaro, M. J. Bearpark, J. J. Heyd, E. N. Brothers, K. N. Kudin, 
 V. N. Staroverov, T. A. Keith, R. Kobayashi, J. Normand, 
 K. Raghavachari, A. P. Rendell, J. C. Burant, S. S. Iyengar, 
 J. Tomasi, M. Cossi, J. M. Millam, M. Klene, C. Adamo, R. Cammi, 
 J. W. Ochterski, R. L. Martin, K. Morokuma, O. Farkas, 
 J. B. Foresman, and D. J. Fox, Gaussian, Inc., Wallingford CT, 2019.
 
 ******************************************
 Gaussian 16:  ES64L-G16RevC.01  3-Jul-2019
                 8-Apr-2023 
 ******************************************
 %mem=50GB
 %chk=/home/data/vip13t32/docs/g16out/mol_for_md/DH_DOP/vac.chk
 %nprocshared=20
 Will use up to   20 processors via shared memory.
 --------------------
 # opt m062x/def2tzvp
 --------------------
 1/18=20,19=15,26=3,38=1/1,3;
 2/9=110,12=2,17=6,18=5,40=1/2;
 3/5=44,7=101,11=2,25=1,30=1,71=1,74=-55/1,2,3;
 4//1;
 5/5=2,38=5/2;
 6/7=2,8=2,9=2,10=2,28=1/1;
 7//1,2,3,16;
 1/18=20,19=15,26=3/3(2);
 2/9=110/2;
 99//99;
 2/9=110/2;
 3/5=44,7=101,11=2,25=1,30=1,71=1,74=-55/1,2,3;
 4/5=5,16=3,69=1/1;
 5/5=2,38=5/2;
 7//1,2,3,16;
 1/18=20,19=15,26=3/3(-5);
 2/9=110/2;
 6/7=2,8=2,9=2,10=2,19=2,28=1/1;
 99/9=1/99;
 -------------------
 Title Card Required
 -------------------
 Symbolic Z-matrix:
 Charge = -1 Multiplicity = 1
 C                    0     1.50391   10.93401   106.56156 
 C                    0     1.06934   10.89718   105.25692 
 C                    0    -0.25386   10.54183   104.9408 
 C                    0    -1.10815   10.19812   106.00487 
 C                    0    -0.6795    10.24919   107.31199 
 C                    0     0.63496   10.6275   107.60051 
 H                    0     2.52994   11.20274   106.79476 
 H                    0     1.75504   11.09801   104.44925 
 H                    0    -2.12565   9.89211   105.80826 
 O                    0    -1.53937   9.93914   108.35111 
 H                    0    -1.0122    10.02784   109.155 
 O                    0     1.02497   10.67735   108.95424 
 H                    0     1.96676   10.86947   108.95886 
 C                    0    -0.66199   10.4016   103.55404 
 H                    0    -1.74698   10.34246   103.44947 
 H                    0    -0.26872   11.1934   102.91664 
 C                    0    -0.03319   8.98458   102.87016 
 H                    0    -0.76019   8.85366   102.02028 
 H                    0    -0.24852   8.20824   103.61839 
 N                    0     1.29085   8.99281   102.5702 
 H                    0     1.45257   9.59875   101.75268 
 

 GradGradGradGradGradGradGradGradGradGradGradGradGradGradGradGradGradGrad
 Berny optimization.
 Initialization pass.
                           ----------------------------
                           !    Initial Parameters    !
                           ! (Angstroms and Degrees)  !
 --------------------------                            --------------------------
 ! Name  Definition              Value          Derivative Info.                !
 --------------------------------------------------------------------------------
 ! R1    R(1,2)                  1.3756         estimate D2E/DX2                !
 ! R2    R(1,6)                  1.3887         estimate D2E/DX2                !
 ! R3    R(1,7)                  1.086          estimate D2E/DX2                !
 ! R4    R(2,3)                  1.4061         estimate D2E/DX2                !
 ! R5    R(2,8)                  1.0783         estimate D2E/DX2                !
 ! R6    R(3,4)                  1.4072         estimate D2E/DX2                !
 ! R7    R(3,14)                 1.4524         estimate D2E/DX2                !
 ! R8    R(4,5)                  1.3766         estimate D2E/DX2                !
 ! R9    R(4,9)                  1.0806         estimate D2E/DX2                !
 ! R10   R(5,6)                  1.3979         estimate D2E/DX2                !
 ! R11   R(5,10)                 1.3839         estimate D2E/DX2                !
 ! R12   R(6,12)                 1.4097         estimate D2E/DX2                !
 ! R13   R(10,11)                0.9654         estimate D2E/DX2                !
 ! R14   R(12,13)                0.9612         estimate D2E/DX2                !
 ! R15   R(14,15)                1.0916         estimate D2E/DX2                !
 ! R16   R(14,16)                1.0899         estimate D2E/DX2                !
 ! R17   R(14,17)                1.6944         estimate D2E/DX2                !
 ! R18   R(17,18)                1.126          estimate D2E/DX2                !
 ! R19   R(17,19)                1.0995         estimate D2E/DX2                !
 ! R20   R(17,20)                1.3576         estimate D2E/DX2                !
 ! R21   R(20,21)                1.0304         estimate D2E/DX2                !
 ! A1    A(2,1,6)              120.3964         estimate D2E/DX2                !
 ! A2    A(2,1,7)              120.5804         estimate D2E/DX2                !
 ! A3    A(6,1,7)              119.0232         estimate D2E/DX2                !
 ! A4    A(1,2,3)              121.1495         estimate D2E/DX2                !
 ! A5    A(1,2,8)              120.2973         estimate D2E/DX2                !
 ! A6    A(3,2,8)              118.4943         estimate D2E/DX2                !
 ! A7    A(2,3,4)              117.583          estimate D2E/DX2                !
 ! A8    A(2,3,14)             120.233          estimate D2E/DX2                !
 ! A9    A(4,3,14)             121.8587         estimate D2E/DX2                !
 ! A10   A(3,4,5)              121.3263         estimate D2E/DX2                !
 ! A11   A(3,4,9)              120.2153         estimate D2E/DX2                !
 ! A12   A(5,4,9)              118.4572         estimate D2E/DX2                !
 ! A13   A(4,5,6)              119.9224         estimate D2E/DX2                !
 ! A14   A(4,5,10)             120.7424         estimate D2E/DX2                !
 ! A15   A(6,5,10)             119.3335         estimate D2E/DX2                !
 ! A16   A(1,6,5)              119.584          estimate D2E/DX2                !
 ! A17   A(1,6,12)             122.5167         estimate D2E/DX2                !
 ! A18   A(5,6,12)             117.899          estimate D2E/DX2                !
 ! A19   A(5,10,11)            105.3885         estimate D2E/DX2                !
 ! A20   A(6,12,13)            106.425          estimate D2E/DX2                !
 ! A21   A(3,14,15)            112.0866         estimate D2E/DX2                !
 ! A22   A(3,14,16)            112.7599         estimate D2E/DX2                !
 ! A23   A(3,14,17)            111.2135         estimate D2E/DX2                !
 ! A24   A(15,14,16)           109.9969         estimate D2E/DX2                !
 ! A25   A(15,14,17)           106.5516         estimate D2E/DX2                !
 ! A26   A(16,14,17)           103.7452         estimate D2E/DX2                !
 ! A27   A(14,17,18)            99.3382         estimate D2E/DX2                !
 ! A28   A(14,17,19)           104.0723         estimate D2E/DX2                !
 ! A29   A(14,17,20)           116.4896         estimate D2E/DX2                !
 ! A30   A(18,17,19)           107.7629         estimate D2E/DX2                !
 ! A31   A(18,17,20)           117.62           estimate D2E/DX2                !
 ! A32   A(19,17,20)           110.2206         estimate D2E/DX2                !
 ! A33   A(17,20,21)           109.3867         estimate D2E/DX2                !
 ! D1    D(6,1,2,3)             -0.4487         estimate D2E/DX2                !
 ! D2    D(6,1,2,8)           -177.6157         estimate D2E/DX2                !
 ! D3    D(7,1,2,3)            179.5529         estimate D2E/DX2                !
 ! D4    D(7,1,2,8)              2.3859         estimate D2E/DX2                !
 ! D5    D(2,1,6,5)              1.5151         estimate D2E/DX2                !
 ! D6    D(2,1,6,12)          -178.6797         estimate D2E/DX2                !
 ! D7    D(7,1,6,5)           -178.4865         estimate D2E/DX2                !
 ! D8    D(7,1,6,12)             1.3187         estimate D2E/DX2                !
 ! D9    D(1,2,3,4)             -1.32           estimate D2E/DX2                !
 ! D10   D(1,2,3,14)          -174.892          estimate D2E/DX2                !
 ! D11   D(8,2,3,4)            175.8968         estimate D2E/DX2                !
 ! D12   D(8,2,3,14)             2.3248         estimate D2E/DX2                !
 ! D13   D(2,3,4,5)              2.0765         estimate D2E/DX2                !
 ! D14   D(2,3,4,9)           -178.3223         estimate D2E/DX2                !
 ! D15   D(14,3,4,5)           175.5372         estimate D2E/DX2                !
 ! D16   D(14,3,4,9)            -4.8616         estimate D2E/DX2                !
 ! D17   D(2,3,14,15)         -167.3804         estimate D2E/DX2                !
 ! D18   D(2,3,14,16)          -42.5983         estimate D2E/DX2                !
 ! D19   D(2,3,14,17)           73.457          estimate D2E/DX2                !
 ! D20   D(4,3,14,15)           19.3289         estimate D2E/DX2                !
 ! D21   D(4,3,14,16)          144.1109         estimate D2E/DX2                !
 ! D22   D(4,3,14,17)          -99.8337         estimate D2E/DX2                !
 ! D23   D(3,4,5,6)             -1.0594         estimate D2E/DX2                !
 ! D24   D(3,4,5,10)           178.4524         estimate D2E/DX2                !
 ! D25   D(9,4,5,6)            179.3326         estimate D2E/DX2                !
 ! D26   D(9,4,5,10)            -1.1556         estimate D2E/DX2                !
 ! D27   D(4,5,6,1)             -0.7654         estimate D2E/DX2                !
 ! D28   D(4,5,6,12)           179.4205         estimate D2E/DX2                !
 ! D29   D(10,5,6,1)           179.7159         estimate D2E/DX2                !
 ! D30   D(10,5,6,12)           -0.0982         estimate D2E/DX2                !
 ! D31   D(4,5,10,11)          178.839          estimate D2E/DX2                !
 ! D32   D(6,5,10,11)           -1.6464         estimate D2E/DX2                !
 ! D33   D(1,6,12,13)           -5.1021         estimate D2E/DX2                !
 ! D34   D(5,6,12,13)          174.7062         estimate D2E/DX2                !
 ! D35   D(3,14,17,18)         158.2846         estimate D2E/DX2                !
 ! D36   D(3,14,17,19)          47.1867         estimate D2E/DX2                !
 ! D37   D(3,14,17,20)         -74.3503         estimate D2E/DX2                !
 ! D38   D(15,14,17,18)         35.8642         estimate D2E/DX2                !
 ! D39   D(15,14,17,19)        -75.2337         estimate D2E/DX2                !
 ! D40   D(15,14,17,20)        163.2293         estimate D2E/DX2                !
 ! D41   D(16,14,17,18)        -80.2376         estimate D2E/DX2                !
 ! D42   D(16,14,17,19)        168.6646         estimate D2E/DX2                !
 ! D43   D(16,14,17,20)         47.1276         estimate D2E/DX2                !
 ! D44   D(14,17,20,21)        -71.9651         estimate D2E/DX2                !
 ! D45   D(18,17,20,21)         45.769          estimate D2E/DX2                !
 ! D46   D(19,17,20,21)        169.8011         estimate D2E/DX2                !
 --------------------------------------------------------------------------------
 Trust Radius=3.00D-01 FncErr=1.00D-07 GrdErr=1.00D-06 EigMax=2.50D+02 EigMin=1.00D-04
 Number of steps in this run=    110 maximum allowed number of steps=    126.
 GradGradGradGradGradGradGradGradGradGradGradGradGradGradGradGradGradGrad

                          Input orientation:                          
 ---------------------------------------------------------------------
 Center     Atomic      Atomic             Coordinates (Angstroms)
 Number     Number       Type             X           Y           Z
 ---------------------------------------------------------------------
      1          6           0        1.503907   10.934008  106.561564
      2          6           0        1.069344   10.897183  105.256918
      3          6           0       -0.253860   10.541834  104.940801
      4          6           0       -1.108154   10.198121  106.004870
      5          6           0       -0.679500   10.249194  107.311990
      6          6           0        0.634963   10.627505  107.600508
      7          1           0        2.529936   11.202743  106.794758
      8          1           0        1.755038   11.098008  104.449251
      9          1           0       -2.125651    9.892111  105.808263
     10          8           0       -1.539371    9.939137  108.351111
     11          1           0       -1.012203   10.027840  109.155004
     12          8           0        1.024965   10.677349  108.954238
     13          1           0        1.966757   10.869474  108.958859
     14          6           0       -0.661990   10.401600  103.554042
     15          1           0       -1.746982   10.342458  103.449468
     16          1           0       -0.268723   11.193400  102.916635
     17          6           0       -0.033186    8.984582  102.870162
     18          1           0       -0.760191    8.853658  102.020282
     19          1           0       -0.248519    8.208240  103.618395
     20          7           0        1.290849    8.992807  102.570201
     21          1           0        1.452571    9.598749  101.752679
 ---------------------------------------------------------------------
                    Distance matrix (angstroms):
                    1          2          3          4          5
     1  C    0.000000
     2  C    1.375610   0.000000
     3  C    2.422895   1.406084   0.000000
     4  C    2.770252   2.406163   1.407196   0.000000
     5  C    2.408188   2.775188   2.426797   1.376559   0.000000
     6  C    1.388672   2.398714   2.805599   2.401851   1.397918
     7  H    1.085972   2.142813   3.409322   3.856020   3.387811
     8  H    2.133502   1.078347   2.141640   3.380476   3.852627
     9  H    3.850546   3.394429   2.162922   1.080554   2.116614
    10  O    3.667940   4.159000   3.694049   2.399556   1.383939
    11  H    3.725302   4.503740   4.312630   3.156191   1.885839
    12  O    2.453599   3.704116   4.214432   3.671325   2.405306
    13  H    2.442420   3.809263   4.602530   4.316462   3.177987
    14  C    3.744297   2.478489   1.452355   2.499404   3.761077
    15  H    4.539092   3.392093   2.119726   2.637995   4.008403
    16  H    4.061405   2.712027   2.126501   3.351480   4.514355
    17  C    4.448524   3.251188   2.600246   3.529112   4.663347
    18  H    5.484272   4.242524   3.411120   4.219669   5.473226
    19  H    4.377563   3.413494   2.682247   3.223952   4.241920
    20  N    4.443493   3.300630   3.225733   4.359466   5.286335
    21  H    4.991085   3.756659   3.737036   4.999769   5.989553
                    6          7          8          9         10
     6  C    0.000000
     7  H    2.138002   0.000000
     8  H    3.377330   2.472415   0.000000
     9  H    3.372527   4.936134   4.284956   0.000000
    10  O    2.401038   4.536320   5.236471   2.609984   0.000000
    11  H    2.342907   4.415644   5.563002   3.529711   0.965410
    12  O    1.409671   2.684088   4.583107   4.521078   2.735789
    13  H    1.917639   2.260879   4.520356   5.256358   3.678018
    14  C    4.255233   4.618708   2.669908   2.735579   4.898524
    15  H    4.794377   5.497553   3.719485   2.431073   4.922589
    16  H    4.803701   4.782511   2.540397   3.674649   5.720249
    17  C    5.051910   5.185777   3.187137   3.719470   5.763729
    18  H    6.019295   6.256098   4.154922   4.158325   6.470301
    19  H    4.742427   5.174567   3.613216   3.339846   5.202010
    20  N    5.329766   4.926056   2.859750   4.792313   6.505736
    21  H    5.993657   5.399636   3.100123   5.416410   7.253061
                   11         12         13         14         15
    11  H    0.000000
    12  O    2.147609   0.000000
    13  H    3.101777   0.961199   0.000000
    14  C    5.624332   5.664271   6.028371   0.000000
    15  H    5.761252   6.172385   6.665058   1.091623   0.000000
    16  H    6.389721   6.196175   6.450641   1.089906   1.786970
    17  C    6.445626   6.403213   6.680182   1.694410   2.261973
    18  H    7.235086   7.388666   7.722928   2.181327   2.287543
    19  H    5.877771   6.015770   6.364761   2.232919   2.613201
    20  N    7.052302   6.607897   6.692808   2.601196   3.438472
    21  H    7.813683   7.294428   7.335405   2.891514   3.697207
                   16         17         18         19         20
    16  H    0.000000
    17  C    2.221827   0.000000
    18  H    2.553308   1.126043   0.000000
    19  H    3.066603   1.099513   1.797870   0.000000
    20  N    2.719355   1.357613   2.128037   2.020869   0.000000
    21  H    2.619267   1.957918   2.350125   2.882381   1.030370
                   21
    21  H    0.000000
 Stoichiometry    C8H10NO2(1-)
 Framework group  C1[X(C8H10NO2)]
 Deg. of freedom    57
 Full point group                 C1      NOp   1
 Largest Abelian subgroup         C1      NOp   1
 Largest concise Abelian subgroup C1      NOp   1
                         Standard orientation:                         
 ---------------------------------------------------------------------
 Center     Atomic      Atomic             Coordinates (Angstroms)
 Number     Number       Type             X           Y           Z
 ---------------------------------------------------------------------
      1          6           0        0.817196    1.518789    0.267421
      2          6           0       -0.454795    1.084019    0.559508
      3          6           0       -0.772577   -0.285682    0.562250
      4          6           0        0.250153   -1.192519    0.227780
      5          6           0        1.527300   -0.760356   -0.049793
      6          6           0        1.822279    0.605836   -0.023671
      7          1           0        1.050689    2.579342    0.260893
      8          1           0       -1.243070    1.795396    0.747653
      9          1           0        0.045826   -2.252911    0.190148
     10          8           0        2.531564   -1.665246   -0.346297
     11          1           0        3.316024   -1.129776   -0.519244
     12          8           0        3.146680    1.000132   -0.302358
     13          1           0        3.145467    1.961103   -0.323282
     14          6           0       -2.144427   -0.717709    0.764030
     15          1           0       -2.212500   -1.789159    0.961520
     16          1           0       -2.650337   -0.160526    1.552381
     17          6           0       -3.089665   -0.419159   -0.610167
     18          1           0       -3.918404   -1.158955   -0.426135
     19          1           0       -2.479422   -0.799153   -1.442114
     20          7           0       -3.438401    0.873293   -0.836146
     21          1           0       -4.144200    1.163187   -0.143708
 ---------------------------------------------------------------------
 Rotational constants (GHZ):           2.3225949           0.6339860           0.5411082
 Standard basis: def2TZVP (5D, 7F)
 There are   456 symmetry adapted cartesian basis functions of A   symmetry.
 There are   401 symmetry adapted basis functions of A   symmetry.
   401 basis functions,   641 primitive gaussians,   456 cartesian basis functions
    41 alpha electrons       41 beta electrons
       nuclear repulsion energy       586.0466109768 Hartrees.
 NAtoms=   21 NActive=   21 NUniq=   21 SFac= 1.00D+00 NAtFMM=   60 NAOKFM=F Big=F
 Integral buffers will be    131072 words long.
 Raffenetti 2 integral format.
 Two-electron integral symmetry is turned on.
 One-electron integrals computed using PRISM.
   1 Symmetry operations used in ECPInt.
 ECPInt:  NShTT=   13041 NPrTT=   39612 LenC2=   12311 LenP2D=   28742.
 LDataN:  DoStor=T MaxTD1= 6 Len=  172
 NBasis=   401 RedAO= T EigKep=  8.91D-06  NBF=   401
 NBsUse=   401 1.00D-06 EigRej= -1.00D+00 NBFU=   401
 ExpMin= 9.52D-02 ExpMax= 2.70D+04 ExpMxC= 9.22D+02 IAcc=3 IRadAn=         5 AccDes= 0.00D+00
 Harris functional with IExCor= 1009 and IRadAn=       5 diagonalized for initial guess.
 HarFok:  IExCor= 1009 AccDes= 0.00D+00 IRadAn=         5 IDoV= 1 UseB2=F ITyADJ=14
 ICtDFT=  3500011 ScaDFX=  1.000000  1.000000  1.000000  1.000000
 FoFCou: FMM=F IPFlag=           0 FMFlag=      100000 FMFlg1=           0
         NFxFlg=           0 DoJE=T BraDBF=F KetDBF=T FulRan=T
         wScrn=  0.000000 ICntrl=       500 IOpCl=  0 I1Cent=   200000004 NGrid=           0
         NMat0=    1 NMatS0=      1 NMatT0=    0 NMatD0=    1 NMtDS0=    0 NMtDT0=    0
 Petite list used in FoFCou.
 Requested convergence on RMS density matrix=1.00D-08 within 128 cycles.
 Requested convergence on MAX density matrix=1.00D-06.
 Requested convergence on             energy=1.00D-06.
 No special actions if energy rises.
 Integral accuracy reduced to 1.0D-05 until final iterations.
 Problem detected with inexpensive integrals.
 Switching to full accuracy and repeating last cycle.
 SCF Done:  E(RM062X) =  -516.007816142     A.U. after   21 cycles
            NFock= 21  Conv=0.68D-08     -V/T= 2.0046

 **********************************************************************

            Population analysis using the SCF Density.

 **********************************************************************

 Orbital symmetries:
       Occupied  (A) (A) (A) (A) (A) (A) (A) (A) (A) (A) (A) (A)
                 (A) (A) (A) (A) (A) (A) (A) (A) (A) (A) (A) (A)
                 (A) (A) (A) (A) (A) (A) (A) (A) (A) (A) (A) (A)
                 (A) (A) (A) (A) (A)
       Virtual   (A) (A) (A) (A) (A) (A) (A) (A) (A) (A) (A) (A)
                 (A) (A) (A) (A) (A) (A) (A) (A) (A) (A) (A) (A)
                 (A) (A) (A) (A) (A) (A) (A) (A) (A) (A) (A) (A)
                 (A) (A) (A) (A) (A) (A) (A) (A) (A) (A) (A) (A)
                 (A) (A) (A) (A) (A) (A) (A) (A) (A) (A) (A) (A)
                 (A) (A) (A) (A) (A) (A) (A) (A) (A) (A) (A) (A)
                 (A) (A) (A) (A) (A) (A) (A) (A) (A) (A) (A) (A)
                 (A) (A) (A) (A) (A) (A) (A) (A) (A) (A) (A) (A)
                 (A) (A) (A) (A) (A) (A) (A) (A) (A) (A) (A) (A)
                 (A) (A) (A) (A) (A) (A) (A) (A) (A) (A) (A) (A)
                 (A) (A) (A) (A) (A) (A) (A) (A) (A) (A) (A) (A)
                 (A) (A) (A) (A) (A) (A) (A) (A) (A) (A) (A) (A)
                 (A) (A) (A) (A) (A) (A) (A) (A) (A) (A) (A) (A)
                 (A) (A) (A) (A) (A) (A) (A) (A) (A) (A) (A) (A)
                 (A) (A) (A) (A) (A) (A) (A) (A) (A) (A) (A) (A)
                 (A) (A) (A) (A) (A) (A) (A) (A) (A) (A) (A) (A)
                 (A) (A) (A) (A) (A) (A) (A) (A) (A) (A) (A) (A)
                 (A) (A) (A) (A) (A) (A) (A) (A) (A) (A) (A) (A)
                 (A) (A) (A) (A) (A) (A) (A) (A) (A) (A) (A) (A)
                 (A) (A) (A) (A) (A) (A) (A) (A) (A) (A) (A) (A)
                 (A) (A) (A) (A) (A) (A) (A) (A) (A) (A) (A) (A)
                 (A) (A) (A) (A) (A) (A) (A) (A) (A) (A) (A) (A)
                 (A) (A) (A) (A) (A) (A) (A) (A) (A) (A) (A) (A)
                 (A) (A) (A) (A) (A) (A) (A) (A) (A) (A) (A) (A)
                 (A) (A) (A) (A) (A) (A) (A) (A) (A) (A) (A) (A)
                 (A) (A) (A) (A) (A) (A) (A) (A) (A) (A) (A) (A)
                 (A) (A) (A) (A) (A) (A) (A) (A) (A) (A) (A) (A)
                 (A) (A) (A) (A) (A) (A) (A) (A) (A) (A) (A) (A)
                 (A) (A) (A) (A) (A) (A) (A) (A) (A) (A) (A) (A)
                 (A) (A) (A) (A) (A) (A) (A) (A) (A) (A) (A) (A)
 The electronic state is 1-A.
 Alpha  occ. eigenvalues --  -19.55116 -19.53314 -14.44589 -10.47076 -10.46978
 Alpha  occ. eigenvalues --  -10.41430 -10.39983 -10.39849 -10.38913 -10.36589
 Alpha  occ. eigenvalues --  -10.35539  -1.07665  -1.04962  -0.82467  -0.74280
 Alpha  occ. eigenvalues --   -0.71426  -0.70448  -0.62570  -0.57593  -0.55225
 Alpha  occ. eigenvalues --   -0.49972  -0.48534  -0.46080  -0.42189  -0.40357
 Alpha  occ. eigenvalues --   -0.39057  -0.37837  -0.35809  -0.34540  -0.33758
 Alpha  occ. eigenvalues --   -0.31292  -0.29768  -0.28759  -0.27132  -0.25828
 Alpha  occ. eigenvalues --   -0.23413  -0.22471  -0.16599  -0.13091  -0.08093
 Alpha  occ. eigenvalues --   -0.01476
 Alpha virt. eigenvalues --    0.14978   0.15960   0.17689   0.19364   0.22074
 Alpha virt. eigenvalues --    0.22901   0.24701   0.26593   0.26969   0.27772
 Alpha virt. eigenvalues --    0.30422   0.30579   0.32178   0.32801   0.33686
 Alpha virt. eigenvalues --    0.33822   0.34725   0.37128   0.37811   0.38179
 Alpha virt. eigenvalues --    0.39605   0.40239   0.41265   0.42098   0.44203
 Alpha virt. eigenvalues --    0.44587   0.45211   0.46494   0.47737   0.48627
 Alpha virt. eigenvalues --    0.50143   0.50548   0.51366   0.52132   0.52753
 Alpha virt. eigenvalues --    0.53093   0.53779   0.54467   0.55532   0.55899
 Alpha virt. eigenvalues --    0.57197   0.58044   0.58896   0.59893   0.60840
 Alpha virt. eigenvalues --    0.61583   0.62290   0.62842   0.64466   0.65148
 Alpha virt. eigenvalues --    0.65565   0.65979   0.66908   0.68207   0.69274
 Alpha virt. eigenvalues --    0.70810   0.72012   0.72544   0.73520   0.74571
 Alpha virt. eigenvalues --    0.75205   0.76986   0.77739   0.78701   0.79216
 Alpha virt. eigenvalues --    0.80680   0.81352   0.81735   0.82998   0.85509
 Alpha virt. eigenvalues --    0.87984   0.89586   0.89972   0.90547   0.92019
 Alpha virt. eigenvalues --    0.92313   0.94054   0.94965   0.97863   0.98742
 Alpha virt. eigenvalues --    1.01372   1.02286   1.02563   1.03279   1.04377
 Alpha virt. eigenvalues --    1.05674   1.07514   1.11059   1.13197   1.16164
 Alpha virt. eigenvalues --    1.16569   1.19743   1.20809   1.23643   1.24205
 Alpha virt. eigenvalues --    1.25715   1.27035   1.27879   1.28378   1.32402
 Alpha virt. eigenvalues --    1.33709   1.35930   1.37206   1.38704   1.39868
 Alpha virt. eigenvalues --    1.40652   1.43390   1.44674   1.46690   1.47924
 Alpha virt. eigenvalues --    1.48782   1.50668   1.52277   1.54591   1.55466
 Alpha virt. eigenvalues --    1.57343   1.57765   1.59799   1.62756   1.63447
 Alpha virt. eigenvalues --    1.65262   1.67765   1.68471   1.69501   1.71563
 Alpha virt. eigenvalues --    1.72548   1.73778   1.75591   1.78507   1.79838
 Alpha virt. eigenvalues --    1.82137   1.83038   1.83473   1.84020   1.86234
 Alpha virt. eigenvalues --    1.86853   1.87369   1.88322   1.89878   1.91558
 Alpha virt. eigenvalues --    1.92729   1.95800   1.96657   2.00110   2.01802
 Alpha virt. eigenvalues --    2.02112   2.03726   2.04922   2.05691   2.07774
 Alpha virt. eigenvalues --    2.08744   2.10752   2.13438   2.15061   2.17133
 Alpha virt. eigenvalues --    2.18288   2.19475   2.21635   2.23463   2.25183
 Alpha virt. eigenvalues --    2.26188   2.28368   2.29912   2.31134   2.31903
 Alpha virt. eigenvalues --    2.32581   2.33231   2.35080   2.37129   2.39918
 Alpha virt. eigenvalues --    2.40494   2.42966   2.43607   2.46799   2.47245
 Alpha virt. eigenvalues --    2.49217   2.51225   2.52455   2.55951   2.57947
 Alpha virt. eigenvalues --    2.60099   2.62050   2.62818   2.64290   2.65783
 Alpha virt. eigenvalues --    2.66720   2.69678   2.71050   2.72180   2.74559
 Alpha virt. eigenvalues --    2.77440   2.78994   2.80177   2.81262   2.82499
 Alpha virt. eigenvalues --    2.84968   2.85336   2.86236   2.86791   2.90585
 Alpha virt. eigenvalues --    2.90831   2.91295   2.92842   2.93309   2.93691
 Alpha virt. eigenvalues --    2.97562   2.98590   2.99683   3.01912   3.02778
 Alpha virt. eigenvalues --    3.03491   3.04686   3.05915   3.06712   3.08580
 Alpha virt. eigenvalues --    3.10765   3.12242   3.12701   3.15127   3.17229
 Alpha virt. eigenvalues --    3.18479   3.19125   3.20051   3.22997   3.24160
 Alpha virt. eigenvalues --    3.27635   3.29631   3.30887   3.31550   3.32914
 Alpha virt. eigenvalues --    3.33301   3.33996   3.35412   3.35860   3.37838
 Alpha virt. eigenvalues --    3.38045   3.40912   3.41601   3.42734   3.43253
 Alpha virt. eigenvalues --    3.44729   3.46189   3.49350   3.50099   3.51845
 Alpha virt. eigenvalues --    3.52304   3.54089   3.54855   3.56827   3.56924
 Alpha virt. eigenvalues --    3.57671   3.61142   3.62084   3.62725   3.63931
 Alpha virt. eigenvalues --    3.66651   3.67312   3.68537   3.70580   3.71518
 Alpha virt. eigenvalues --    3.76914   3.79104   3.81580   3.84214   3.84545
 Alpha virt. eigenvalues --    3.85575   3.89446   3.92299   3.95062   3.97830
 Alpha virt. eigenvalues --    3.99857   4.02275   4.04526   4.07293   4.08869
 Alpha virt. eigenvalues --    4.09753   4.13072   4.17137   4.19279   4.20721
 Alpha virt. eigenvalues --    4.25734   4.26382   4.27052   4.28812   4.30327
 Alpha virt. eigenvalues --    4.30752   4.34998   4.35924   4.37550   4.42824
 Alpha virt. eigenvalues --    4.45367   4.47281   4.48322   4.50996   4.54426
 Alpha virt. eigenvalues --    4.58650   4.59754   4.65161   4.70172   4.71449
 Alpha virt. eigenvalues --    4.75398   4.77045   4.80282   4.83510   4.85352
 Alpha virt. eigenvalues --    4.93158   4.95395   4.98886   5.01555   5.04799
 Alpha virt. eigenvalues --    5.04963   5.08969   5.14807   5.18695   5.19955
 Alpha virt. eigenvalues --    5.21934   5.32654   5.35221   5.38925   5.41363
 Alpha virt. eigenvalues --    5.42247   5.44231   5.50068   5.53068   5.54763
 Alpha virt. eigenvalues --    5.57348   5.58603   5.60515   5.64547   5.73302
 Alpha virt. eigenvalues --    5.74432   5.89448   5.93921   5.94497   6.06369
 Alpha virt. eigenvalues --    6.26407   6.34955   6.48166   6.52166   6.55357
 Alpha virt. eigenvalues --    6.57510   6.75048   6.84995   6.88813   6.92831
 Alpha virt. eigenvalues --    7.08351   7.10448   7.29186   7.41796  22.38926
 Alpha virt. eigenvalues --   22.82289  22.84528  22.98267  23.02149  23.08687
 Alpha virt. eigenvalues --   23.21334  23.60633  32.32037  44.08539  44.31276
          Condensed to atoms (all electrons):
               1          2          3          4          5          6
     1  C    6.976793  -1.705928   1.485676  -0.709899   0.600593  -0.727010
     2  C   -1.705928   8.528288  -2.044543   0.983245  -0.815104   1.120640
     3  C    1.485676  -2.044543   7.300947  -0.603108   0.688584  -0.922524
     4  C   -0.709899   0.983245  -0.603108   5.987719  -0.086518   0.471789
     5  C    0.600593  -0.815104   0.688584  -0.086518   5.403140  -0.223222
     6  C   -0.727010   1.120640  -0.922524   0.471789  -0.223222   6.113827
     7  H    0.468258  -0.073052   0.058508  -0.012629   0.015878  -0.121120
     8  H   -0.250663   0.717292  -0.384159   0.068430  -0.033370   0.088231
     9  H   -0.026304   0.065367  -0.087378   0.444729  -0.096754   0.043037
    10  O    0.017391  -0.005905   0.002924  -0.052993   0.345587  -0.125772
    11  H    0.006944  -0.001870   0.001547   0.000759  -0.025551  -0.040131
    12  O   -0.095697   0.010890   0.000505  -0.000660  -0.043707   0.251743
    13  H   -0.005195   0.007109  -0.000854   0.000529   0.000543  -0.044415
    14  C    0.193670  -0.853622   0.423065  -0.204379   0.119538  -0.075376
    15  H   -0.019987   0.116071   0.019952  -0.024605  -0.009002   0.006766
    16  H    0.000896  -0.017324  -0.045921   0.001154  -0.000630   0.000398
    17  C   -0.023278   0.095371  -0.052136   0.015082  -0.015962   0.009797
    18  H   -0.004103   0.031342   0.017560   0.013076  -0.002538   0.001127
    19  H    0.003447  -0.008370   0.055924  -0.034300   0.007069  -0.002952
    20  N   -0.040156   0.130780  -0.135698   0.015546  -0.004694   0.007435
    21  H    0.001469  -0.003426   0.002355  -0.002746   0.000317  -0.000219
               7          8          9         10         11         12
     1  C    0.468258  -0.250663  -0.026304   0.017391   0.006944  -0.095697
     2  C   -0.073052   0.717292   0.065367  -0.005905  -0.001870   0.010890
     3  C    0.058508  -0.384159  -0.087378   0.002924   0.001547   0.000505
     4  C   -0.012629   0.068430   0.444729  -0.052993   0.000759  -0.000660
     5  C    0.015878  -0.033370  -0.096754   0.345587  -0.025551  -0.043707
     6  C   -0.121120   0.088231   0.043037  -0.125772  -0.040131   0.251743
     7  H    0.587214  -0.028701  -0.000089  -0.000107  -0.000018  -0.004114
     8  H   -0.028701   0.710128   0.001508   0.000006  -0.000004  -0.000173
     9  H   -0.000089   0.001508   0.565253   0.003969  -0.001151  -0.000162
    10  O   -0.000107   0.000006   0.003969   7.973118   0.315859  -0.005709
    11  H   -0.000018  -0.000004  -0.001151   0.315859   0.405736   0.015012
    12  O   -0.004114  -0.000173  -0.000162  -0.005709   0.015012   8.074133
    13  H    0.004752  -0.000073   0.000062  -0.000359  -0.001514   0.314727
    14  C    0.003215  -0.120344  -0.048309   0.000186   0.000044   0.000001
    15  H   -0.000164   0.014088   0.013800  -0.000071   0.000008   0.000000
    16  H   -0.000100   0.002457   0.000123   0.000005  -0.000001  -0.000001
    17  C   -0.000529   0.008710   0.004350  -0.000018  -0.000003  -0.000004
    18  H   -0.000047   0.008565   0.002010  -0.000001   0.000000   0.000000
    19  H    0.000048  -0.000466  -0.000969  -0.000003   0.000001   0.000002
    20  N   -0.001513   0.123609   0.000721  -0.000001   0.000000   0.000000
    21  H    0.000040  -0.002960  -0.000040  -0.000000   0.000000  -0.000000
              13         14         15         16         17         18
     1  C   -0.005195   0.193670  -0.019987   0.000896  -0.023278  -0.004103
     2  C    0.007109  -0.853622   0.116071  -0.017324   0.095371   0.031342
     3  C   -0.000854   0.423065   0.019952  -0.045921  -0.052136   0.017560
     4  C    0.000529  -0.204379  -0.024605   0.001154   0.015082   0.013076
     5  C    0.000543   0.119538  -0.009002  -0.000630  -0.015962  -0.002538
     6  C   -0.044415  -0.075376   0.006766   0.000398   0.009797   0.001127
     7  H    0.004752   0.003215  -0.000164  -0.000100  -0.000529  -0.000047
     8  H   -0.000073  -0.120344   0.014088   0.002457   0.008710   0.008565
     9  H    0.000062  -0.048309   0.013800   0.000123   0.004350   0.002010
    10  O   -0.000359   0.000186  -0.000071   0.000005  -0.000018  -0.000001
    11  H   -0.001514   0.000044   0.000008  -0.000001  -0.000003   0.000000
    12  O    0.314727   0.000001   0.000000  -0.000001  -0.000004   0.000000
    13  H    0.409968  -0.000002   0.000000   0.000000  -0.000003  -0.000000
    14  C   -0.000002   7.330920  -0.070003   0.391675  -0.039961  -0.264452
    15  H    0.000000  -0.070003   0.804267  -0.021193   0.028263   0.041288
    16  H    0.000000   0.391675  -0.021193   0.613789  -0.042242  -0.004892
    17  C   -0.000003  -0.039961   0.028263  -0.042242   4.936758   0.367750
    18  H   -0.000000  -0.264452   0.041288  -0.004892   0.367750   0.988415
    19  H    0.000000  -0.157397   0.019047   0.013385   0.369677  -0.096666
    20  N   -0.000001  -0.314508   0.032096   0.007120   0.537253  -0.057138
    21  H   -0.000000  -0.028136   0.001969   0.011940  -0.105802  -0.041892
              19         20         21
     1  C    0.003447  -0.040156   0.001469
     2  C   -0.008370   0.130780  -0.003426
     3  C    0.055924  -0.135698   0.002355
     4  C   -0.034300   0.015546  -0.002746
     5  C    0.007069  -0.004694   0.000317
     6  C   -0.002952   0.007435  -0.000219
     7  H    0.000048  -0.001513   0.000040
     8  H   -0.000466   0.123609  -0.002960
     9  H   -0.000969   0.000721  -0.000040
    10  O   -0.000003  -0.000001  -0.000000
    11  H    0.000001   0.000000   0.000000
    12  O    0.000002   0.000000  -0.000000
    13  H    0.000000  -0.000001  -0.000000
    14  C   -0.157397  -0.314508  -0.028136
    15  H    0.019047   0.032096   0.001969
    16  H    0.013385   0.007120   0.011940
    17  C    0.369677   0.537253  -0.105802
    18  H   -0.096666  -0.057138  -0.041892
    19  H    0.781465  -0.040465   0.030517
    20  N   -0.040465   7.201981   0.304108
    21  H    0.030517   0.304108   0.706201
 Mulliken charges:
               1
     1  C   -0.146917
     2  C   -0.277251
     3  C    0.218773
     4  C   -0.270222
     5  C    0.175804
     6  C    0.167951
     7  H    0.104271
     8  H    0.077890
     9  H    0.116227
    10  O   -0.468108
    11  H    0.324336
    12  O   -0.516786
    13  H    0.314727
    14  C   -0.285822
    15  H    0.047409
    16  H    0.089363
    17  C   -0.093073
    18  H    0.000595
    19  H    0.061005
    20  N   -0.766477
    21  H    0.126305
 Sum of Mulliken charges =  -1.00000
 Mulliken charges with hydrogens summed into heavy atoms:
               1
     1  C   -0.042646
     2  C   -0.199361
     3  C    0.218773
     4  C   -0.153994
     5  C    0.175804
     6  C    0.167951
    10  O   -0.143772
    12  O   -0.202060
    14  C   -0.149049
    17  C   -0.031473
    20  N   -0.640173
 Electronic spatial extent (au):  <R**2>=           2125.5287
 Charge=             -1.0000 electrons
 Dipole moment (field-independent basis, Debye):
    X=              9.9421    Y=              0.1029    Z=              2.9363  Tot=             10.3672
 Quadrupole moment (field-independent basis, Debye-Ang):
   XX=           -110.8975   YY=            -72.5348   ZZ=            -78.0542
   XY=             14.1734   XZ=            -14.1179   YZ=              3.7880
 Traceless Quadrupole moment (field-independent basis, Debye-Ang):
   XX=            -23.7353   YY=             14.6274   ZZ=              9.1080
   XY=             14.1734   XZ=            -14.1179   YZ=              3.7880
 Octapole moment (field-independent basis, Debye-Ang**2):
  XXX=            171.1865  YYY=             18.1341  ZZZ=             -0.3530  XYY=             32.5167
  XXY=            -10.4273  XXZ=             44.4469  XZZ=             29.0702  YZZ=             -4.8194
  YYZ=              4.3149  XYZ=            -16.3011
 Hexadecapole moment (field-independent basis, Debye-Ang**3):
 XXXX=          -2599.3162 YYYY=           -553.2703 ZZZZ=           -225.4211 XXXY=             93.5276
 XXXZ=           -214.0169 YYYX=             72.8512 YYYZ=              2.7865 ZZZX=            -37.8723
 ZZZY=             10.3866 XXYY=           -483.9813 XXZZ=           -463.0269 YYZZ=           -144.7250
 XXYZ=             47.3532 YYXZ=            -27.1874 ZZXY=             12.1672
 N-N= 5.860466109768D+02 E-N=-2.389302532238D+03  KE= 5.136553546802D+02
   1 Symmetry operations used in ECPInt.
 ECPInt:  NShTT=   13041 NPrTT=   39612 LenC2=   12311 LenP2D=   28742.
 LDataN:  DoStor=T MaxTD1= 7 Len=  274
 Calling FoFJK, ICntrl=      2127 FMM=F ISym2X=0 I1Cent= 0 IOpClX= 0 NMat=1 NMatS=1 NMatT=0.
 ***** Axes restored to original set *****
 -------------------------------------------------------------------
 Center     Atomic                   Forces (Hartrees/Bohr)
 Number     Number              X              Y              Z
 -------------------------------------------------------------------
      1        6          -0.002747866   -0.001039357    0.012542696
      2        6          -0.004858491   -0.000633501   -0.008165896
      3        6           0.003724314    0.000751226    0.014221305
      4        6           0.004419788    0.002403155   -0.006649638
      5        6           0.005273097    0.000924386    0.013540363
      6        6           0.002947986    0.000026121    0.003573128
      7        1           0.000558285    0.000176901   -0.000093033
      8        1           0.000507036   -0.000590719   -0.002665704
      9        1          -0.002169356   -0.000226907   -0.000327580
     10        8           0.006755683    0.002064865   -0.003950344
     11        1          -0.002320945   -0.000896404    0.000387366
     12        8          -0.006259527   -0.001007246   -0.012660977
     13        1          -0.000958682   -0.000610249    0.001437492
     14        6          -0.002904374   -0.013775783   -0.014589757
     15        1          -0.002454650    0.002465564    0.001222719
     16        1          -0.000098168   -0.000372965   -0.000653957
     17        6          -0.018971157    0.011115235   -0.000474088
     18        1           0.000580766   -0.000843394    0.004169795
     19        1          -0.004726253    0.000148223    0.001302524
     20        7           0.026976787    0.003340574   -0.006936549
     21        1          -0.003274272   -0.003419725    0.004770136
 -------------------------------------------------------------------
 Cartesian Forces:  Max     0.026976787 RMS     0.006724208

 GradGradGradGradGradGradGradGradGradGradGradGradGradGradGradGradGradGrad
 Berny optimization.
 FormGI is forming the generalized inverse of G from B-inverse, IUseBI=4.
 Internal  Forces:  Max     0.023592838 RMS     0.003985028
 Search for a local minimum.
 Step number   1 out of a maximum of  110
 All quantities printed in internal units (Hartrees-Bohrs-Radians)
 Mixed Optimization -- RFO/linear search
 Second derivative matrix not updated -- first step.
 ITU=  0
     Eigenvalues ---    0.00230   0.01396   0.01564   0.01788   0.01904
     Eigenvalues ---    0.02025   0.02094   0.02161   0.02187   0.02209
     Eigenvalues ---    0.02252   0.02252   0.02301   0.02334   0.04587
     Eigenvalues ---    0.04708   0.05856   0.06500   0.09000   0.11576
     Eigenvalues ---    0.12650   0.14172   0.15982   0.16000   0.16000
     Eigenvalues ---    0.16000   0.16000   0.16000   0.18277   0.22048
     Eigenvalues ---    0.22142   0.22367   0.23430   0.24594   0.24822
     Eigenvalues ---    0.24999   0.25000   0.30959   0.33736   0.34626
     Eigenvalues ---    0.34824   0.35282   0.35927   0.36195   0.37938
     Eigenvalues ---    0.41620   0.42665   0.42724   0.44055   0.45390
     Eigenvalues ---    0.46260   0.48095   0.48389   0.49828   0.53433
     Eigenvalues ---    0.54326   0.55216
 RFO step:  Lambda=-5.26799934D-03 EMin= 2.30000000D-03
 Linear search not attempted -- first point.
 Iteration  1 RMS(Cart)=  0.05652675 RMS(Int)=  0.00124511
 Iteration  2 RMS(Cart)=  0.00214975 RMS(Int)=  0.00008997
 Iteration  3 RMS(Cart)=  0.00000292 RMS(Int)=  0.00008994
 Iteration  4 RMS(Cart)=  0.00000000 RMS(Int)=  0.00008994
 Variable       Old X    -DE/DX   Delta X   Delta X   Delta X     New X
                                 (Linear)    (Quad)   (Total)
    R1        2.59953   0.01008   0.00000   0.02060   0.02060   2.62013
    R2        2.62421  -0.00456   0.00000  -0.00955  -0.00955   2.61466
    R3        2.05219   0.00055   0.00000   0.00154   0.00154   2.05373
    R4        2.65711  -0.00283   0.00000  -0.00551  -0.00550   2.65162
    R5        2.03778   0.00221   0.00000   0.00602   0.00602   2.04380
    R6        2.65921  -0.00432   0.00000  -0.00956  -0.00955   2.64966
    R7        2.74455   0.01218   0.00000   0.03167   0.03167   2.77623
    R8        2.60132   0.00495   0.00000   0.00923   0.00923   2.61055
    R9        2.04195   0.00217   0.00000   0.00594   0.00594   2.04789
   R10        2.64168  -0.00957   0.00000  -0.02130  -0.02131   2.62037
   R11        2.61527  -0.00569   0.00000  -0.01164  -0.01164   2.60363
   R12        2.66389  -0.01283   0.00000  -0.02878  -0.02878   2.63511
   R13        1.82436  -0.00103   0.00000  -0.00187  -0.00187   1.82249
   R14        1.81640  -0.00105   0.00000  -0.00189  -0.00189   1.81451
   R15        2.06287   0.00219   0.00000   0.00623   0.00623   2.06910
   R16        2.05962   0.00008   0.00000   0.00022   0.00022   2.05984
   R17        3.20197  -0.00958   0.00000  -0.05092  -0.05092   3.15105
   R18        2.12791  -0.00342   0.00000  -0.01087  -0.01087   2.11704
   R19        2.07778   0.00171   0.00000   0.00498   0.00498   2.08276
   R20        2.56552   0.02359   0.00000   0.04372   0.04372   2.60924
   R21        1.94712  -0.00631   0.00000  -0.01459  -0.01459   1.93253
    A1        2.10131  -0.00038   0.00000  -0.00029  -0.00030   2.10101
    A2        2.10453  -0.00003   0.00000  -0.00121  -0.00123   2.10330
    A3        2.07735   0.00041   0.00000   0.00150   0.00148   2.07882
    A4        2.11446  -0.00166   0.00000  -0.00449  -0.00452   2.10994
    A5        2.09958   0.00233   0.00000   0.01097   0.01090   2.11048
    A6        2.06812  -0.00069   0.00000  -0.00728  -0.00733   2.06078
    A7        2.05221  -0.00088   0.00000  -0.00228  -0.00228   2.04993
    A8        2.09846  -0.00061   0.00000  -0.00364  -0.00368   2.09478
    A9        2.12684   0.00146   0.00000   0.00455   0.00451   2.13134
   A10        2.11754   0.00132   0.00000   0.00480   0.00480   2.12235
   A11        2.09815  -0.00062   0.00000  -0.00214  -0.00214   2.09601
   A12        2.06747  -0.00070   0.00000  -0.00263  -0.00264   2.06483
   A13        2.09304   0.00034   0.00000  -0.00105  -0.00106   2.09198
   A14        2.10735  -0.00081   0.00000  -0.00196  -0.00197   2.10539
   A15        2.08276   0.00047   0.00000   0.00306   0.00306   2.08582
   A16        2.08713   0.00128   0.00000   0.00371   0.00370   2.09084
   A17        2.13832   0.00601   0.00000   0.02421   0.02421   2.16253
   A18        2.05773  -0.00729   0.00000  -0.02791  -0.02791   2.02982
   A19        1.83938   0.00417   0.00000   0.02526   0.02526   1.86464
   A20        1.85747   0.00264   0.00000   0.01595   0.01595   1.87341
   A21        1.95628  -0.00000   0.00000   0.00730   0.00730   1.96358
   A22        1.96803   0.00104   0.00000  -0.00947  -0.00996   1.95807
   A23        1.94104  -0.00411   0.00000  -0.01772  -0.01799   1.92305
   A24        1.91981  -0.00088   0.00000  -0.00370  -0.00348   1.91633
   A25        1.85968   0.00480   0.00000   0.04318   0.04324   1.90292
   A26        1.81070  -0.00070   0.00000  -0.01861  -0.01892   1.79177
   A27        1.73378   0.00037   0.00000   0.00442   0.00428   1.73806
   A28        1.81640  -0.00353   0.00000  -0.03133  -0.03135   1.78505
   A29        2.03313  -0.00078   0.00000  -0.00129  -0.00137   2.03176
   A30        1.88082  -0.00150   0.00000  -0.02154  -0.02175   1.85907
   A31        2.05286   0.00170   0.00000   0.02377   0.02366   2.07652
   A32        1.92371   0.00280   0.00000   0.01687   0.01675   1.94046
   A33        1.90916  -0.00449   0.00000  -0.02715  -0.02715   1.88201
    D1       -0.00783   0.00011   0.00000   0.00430   0.00428  -0.00355
    D2       -3.09998   0.00068   0.00000   0.02370   0.02376  -3.07622
    D3        3.13379  -0.00020   0.00000  -0.00680  -0.00681   3.12698
    D4        0.04164   0.00037   0.00000   0.01260   0.01267   0.05432
    D5        0.02644  -0.00026   0.00000  -0.00929  -0.00927   0.01717
    D6       -3.11855  -0.00023   0.00000  -0.00720  -0.00716  -3.12571
    D7       -3.11518   0.00005   0.00000   0.00164   0.00166  -3.11351
    D8        0.02302   0.00009   0.00000   0.00373   0.00378   0.02679
    D9       -0.02304   0.00019   0.00000   0.00536   0.00534  -0.01769
   D10       -3.05244   0.00039   0.00000   0.01858   0.01851  -3.03393
   D11        3.06998  -0.00029   0.00000  -0.01319  -0.01309   3.05688
   D12        0.04058  -0.00009   0.00000   0.00003   0.00008   0.04065
   D13        0.03624  -0.00029   0.00000  -0.01005  -0.01004   0.02621
   D14       -3.11231  -0.00014   0.00000  -0.00436  -0.00434  -3.11665
   D15        3.06370  -0.00064   0.00000  -0.02407  -0.02407   3.03963
   D16       -0.08485  -0.00048   0.00000  -0.01838  -0.01838  -0.10323
   D17       -2.92134   0.00036   0.00000  -0.02432  -0.02431  -2.94565
   D18       -0.74348  -0.00002   0.00000  -0.03093  -0.03103  -0.77451
   D19        1.28207  -0.00293   0.00000  -0.07202  -0.07194   1.21013
   D20        0.33735   0.00073   0.00000  -0.01004  -0.01003   0.32732
   D21        2.51521   0.00035   0.00000  -0.01666  -0.01675   2.49847
   D22       -1.74243  -0.00256   0.00000  -0.05774  -0.05766  -1.80008
   D23       -0.01849   0.00012   0.00000   0.00517   0.00519  -0.01330
   D24        3.11458   0.00030   0.00000   0.01135   0.01136   3.12594
   D25        3.12994  -0.00004   0.00000  -0.00042  -0.00041   3.12954
   D26       -0.02017   0.00014   0.00000   0.00576   0.00577  -0.01440
   D27       -0.01336   0.00010   0.00000   0.00449   0.00451  -0.00885
   D28        3.13148   0.00005   0.00000   0.00240   0.00245   3.13393
   D29        3.13663  -0.00007   0.00000  -0.00157  -0.00157   3.13506
   D30       -0.00171  -0.00012   0.00000  -0.00366  -0.00363  -0.00534
   D31        3.12133  -0.00028   0.00000  -0.01101  -0.01102   3.11031
   D32       -0.02873  -0.00010   0.00000  -0.00490  -0.00489  -0.03362
   D33       -0.08905  -0.00035   0.00000  -0.01677  -0.01676  -0.10581
   D34        3.04920  -0.00030   0.00000  -0.01465  -0.01466   3.03454
   D35        2.76259  -0.00029   0.00000   0.06647   0.06640   2.82899
   D36        0.82356   0.00215   0.00000   0.09653   0.09641   0.91997
   D37       -1.29766   0.00167   0.00000   0.09905   0.09891  -1.19875
   D38        0.62595  -0.00094   0.00000   0.04011   0.04009   0.66603
   D39       -1.31308   0.00150   0.00000   0.07017   0.07010  -1.24298
   D40        2.84889   0.00103   0.00000   0.07268   0.07259   2.92148
   D41       -1.40041  -0.00163   0.00000   0.03461   0.03482  -1.36559
   D42        2.94375   0.00081   0.00000   0.06467   0.06483   3.00858
   D43        0.82253   0.00033   0.00000   0.06719   0.06733   0.88986
   D44       -1.25603  -0.00157   0.00000  -0.02287  -0.02300  -1.27903
   D45        0.79882  -0.00029   0.00000   0.00217   0.00218   0.80100
   D46        2.96359   0.00146   0.00000   0.00621   0.00632   2.96991
         Item               Value     Threshold  Converged?
 Maximum Force            0.023593     0.000450     NO 
 RMS     Force            0.003985     0.000300     NO 
 Maximum Displacement     0.238613     0.001800     NO 
 RMS     Displacement     0.056357     0.001200     NO 
 Predicted change in Energy=-2.831028D-03
 GradGradGradGradGradGradGradGradGradGradGradGradGradGradGradGradGradGrad

                          Input orientation:                          
 ---------------------------------------------------------------------
 Center     Atomic      Atomic             Coordinates (Angstroms)
 Number     Number       Type             X           Y           Z
 ---------------------------------------------------------------------
      1          6           0        1.503504   10.917796  106.532288
      2          6           0        1.048453   10.880385  105.223111
      3          6           0       -0.281495   10.540561  104.932147
      4          6           0       -1.118082   10.221667  106.011232
      5          6           0       -0.666411   10.268697  107.315903
      6          6           0        0.648065   10.623166  107.579101
      7          1           0        2.538350   11.168598  106.749768
      8          1           0        1.723243   11.050094  104.395123
      9          1           0       -2.146744    9.930545  105.833737
     10          8           0       -1.511012    9.968979  108.362372
     11          1           0       -0.989025   10.035797  109.170560
     12          8           0        1.022093   10.655913  108.922043
     13          1           0        1.968089   10.817746  108.951755
     14          6           0       -0.709207   10.374306  103.536538
     15          1           0       -1.797414   10.305305  103.437096
     16          1           0       -0.329137   11.167148  102.892259
     17          6           0       -0.015591    9.006845  102.881264
     18          1           0       -0.690646    8.859581  101.999412
     19          1           0       -0.286534    8.231486  103.616207
     20          7           0        1.349685    9.047298  102.679136
     21          1           0        1.529816    9.658086  101.878948
 ---------------------------------------------------------------------
                    Distance matrix (angstroms):
                    1          2          3          4          5
     1  C    0.000000
     2  C    1.386512   0.000000
     3  C    2.426722   1.403175   0.000000
     4  C    2.762030   2.397690   1.402140   0.000000
     5  C    2.396647   2.773932   2.429890   1.381443   0.000000
     6  C    1.383618   2.403572   2.806648   2.395557   1.386640
     7  H    1.086787   2.152566   3.413166   3.848586   3.376511
     8  H    2.152501   1.081530   2.137052   3.372125   3.853827
     9  H    3.845381   3.388856   2.159662   1.083699   2.121921
    10  O    3.651954   4.151684   3.688477   2.397104   1.377781
    11  H    3.735118   4.521836   4.326608   3.167422   1.896860
    12  O    2.451788   3.705830   4.199037   3.638920   2.362344
    13  H    2.465699   3.840890   4.614619   4.304235   3.149295
    14  C    3.763773   2.487973   1.469116   2.512884   3.781083
    15  H    4.566336   3.408743   2.142086   2.663581   4.040501
    16  H    4.082960   2.722657   2.134484   3.353261   4.526543
    17  C    4.391965   3.182231   2.574706   3.533833   4.656378
    18  H    5.440360   4.183343   3.405002   4.258248   5.500116
    19  H    4.350175   3.373574   2.657735   3.223110   4.240553
    20  N    4.285931   3.150041   3.156999   4.309510   5.201545
    21  H    4.820906   3.592932   3.658092   4.940117   5.895485
                    6          7          8          9         10
     6  C    0.000000
     7  H    2.135057   0.000000
     8  H    3.387623   2.494553   0.000000
     9  H    3.367043   4.931734   4.277827   0.000000
    10  O    2.388114   4.520720   5.231470   2.607610   0.000000
    11  H    2.357500   4.425590   5.584801   3.533523   0.964419
    12  O    1.394439   2.698269   4.597824   4.483896   2.683605
    13  H    1.914289   2.301530   4.569117   5.238418   3.629315
    14  C    4.271585   4.637065   2.666584   2.746009   4.908753
    15  H    4.820541   5.524303   3.723916   2.450789   4.945047
    16  H    4.818436   4.806543   2.546481   3.672216   5.723161
    17  C    5.012246   5.114794   3.080614   3.756611   5.762337
    18  H    6.002942   6.190627   4.045324   4.239014   6.510840
    19  H    4.722091   5.140603   3.548305   3.356281   5.200415
    20  N    5.194737   4.741612   2.663710   4.791310   6.429017
    21  H    5.848129   5.198430   2.882055   5.406634   7.167851
                   11         12         13         14         15
    11  H    0.000000
    12  O    2.119175   0.000000
    13  H    3.066569   0.960198   0.000000
    14  C    5.651115   5.663953   6.057155   0.000000
    15  H    5.796442   6.177151   6.697244   1.094918   0.000000
    16  H    6.413460   6.200441   6.489747   1.090021   1.787584
    17  C    6.446826   6.347221   6.638163   1.667464   2.273728
    18  H    7.273094   7.354122   7.696646   2.158123   2.319912
    19  H    5.882166   5.978482   6.343512   2.185562   2.572074
    20  N    6.970315   6.455141   6.546958   2.595212   3.472941
    21  H    7.723655   7.131523   7.180634   2.876421   3.730574
                   16         17         18         19         20
    16  H    0.000000
    17  C    2.182966   0.000000
    18  H    2.500547   1.120290   0.000000
    19  H    3.023910   1.102150   1.780965   0.000000
    20  N    2.712495   1.380751   2.158753   2.054475   0.000000
    21  H    2.599957   1.953724   2.362747   2.890050   1.022649
                   21
    21  H    0.000000
 Stoichiometry    C8H10NO2(1-)
 Framework group  C1[X(C8H10NO2)]
 Deg. of freedom    57
 Full point group                 C1      NOp   1
 Largest Abelian subgroup         C1      NOp   1
 Largest concise Abelian subgroup C1      NOp   1
                         Standard orientation:                         
 ---------------------------------------------------------------------
 Center     Atomic      Atomic             Coordinates (Angstroms)
 Number     Number       Type             X           Y           Z
 ---------------------------------------------------------------------
      1          6           0        0.777572    1.506654    0.296214
      2          6           0       -0.497780    1.039732    0.575277
      3          6           0       -0.782953   -0.333975    0.552784
      4          6           0        0.262696   -1.205816    0.217364
      5          6           0        1.535384   -0.740365   -0.050976
      6          6           0        1.796369    0.620767   -0.006536
      7          1           0        0.988384    2.572782    0.302116
      8          1           0       -1.314214    1.726195    0.753921
      9          1           0        0.084180   -2.273396    0.164371
     10          8           0        2.552506   -1.616630   -0.360659
     11          1           0        3.336556   -1.083436   -0.536937
     12          8           0        3.107756    1.007679   -0.280442
     13          1           0        3.122586    1.967285   -0.310743
     14          6           0       -2.166358   -0.800299    0.717205
     15          1           0       -2.227913   -1.881805    0.876583
     16          1           0       -2.683758   -0.278444    1.522257
     17          6           0       -3.072913   -0.395720   -0.622538
     18          1           0       -3.936319   -1.095552   -0.481779
     19          1           0       -2.468102   -0.806218   -1.447419
     20          7           0       -3.325346    0.948735   -0.810129
     21          1           0       -4.018163    1.237185   -0.115427
 ---------------------------------------------------------------------
 Rotational constants (GHZ):           2.3346840           0.6467251           0.5495704
 Standard basis: def2TZVP (5D, 7F)
 There are   456 symmetry adapted cartesian basis functions of A   symmetry.
 There are   401 symmetry adapted basis functions of A   symmetry.
   401 basis functions,   641 primitive gaussians,   456 cartesian basis functions
    41 alpha electrons       41 beta electrons
       nuclear repulsion energy       588.4318085529 Hartrees.
 NAtoms=   21 NActive=   21 NUniq=   21 SFac= 1.00D+00 NAtFMM=   60 NAOKFM=F Big=F
 Integral buffers will be    131072 words long.
 Raffenetti 2 integral format.
 Two-electron integral symmetry is turned on.
 One-electron integrals computed using PRISM.
   1 Symmetry operations used in ECPInt.
 ECPInt:  NShTT=   13041 NPrTT=   39612 LenC2=   12327 LenP2D=   28778.
 LDataN:  DoStor=T MaxTD1= 6 Len=  172
 NBasis=   401 RedAO= T EigKep=  8.78D-06  NBF=   401
 NBsUse=   401 1.00D-06 EigRej= -1.00D+00 NBFU=   401
 Initial guess from the checkpoint file:  "/home/data/vip13t32/docs/g16out/mol_for_md/DH_DOP/vac.chk"
 B after Tr=     0.000000   -0.000000   -0.000000
         Rot=    0.999894   -0.014234    0.002690   -0.001726 Ang=  -1.67 deg.
 ExpMin= 9.52D-02 ExpMax= 2.70D+04 ExpMxC= 9.22D+02 IAcc=3 IRadAn=         5 AccDes= 0.00D+00
 Harris functional with IExCor= 1009 and IRadAn=       5 diagonalized for initial guess.
 HarFok:  IExCor= 1009 AccDes= 0.00D+00 IRadAn=         5 IDoV= 1 UseB2=F ITyADJ=14
 ICtDFT=  3500011 ScaDFX=  1.000000  1.000000  1.000000  1.000000
 FoFCou: FMM=F IPFlag=           0 FMFlag=      100000 FMFlg1=           0
         NFxFlg=           0 DoJE=T BraDBF=F KetDBF=T FulRan=T
         wScrn=  0.000000 ICntrl=       500 IOpCl=  0 I1Cent=   200000004 NGrid=           0
         NMat0=    1 NMatS0=      1 NMatT0=    0 NMatD0=    1 NMtDS0=    0 NMtDT0=    0
 Petite list used in FoFCou.
 Requested convergence on RMS density matrix=1.00D-08 within 128 cycles.
 Requested convergence on MAX density matrix=1.00D-06.
 Requested convergence on             energy=1.00D-06.
 No special actions if energy rises.
 Integral accuracy reduced to 1.0D-05 until final iterations.
 Initial convergence to 1.0D-05 achieved.  Increase integral accuracy.
 SCF Done:  E(RM062X) =  -516.011093551     A.U. after   17 cycles
            NFock= 17  Conv=0.76D-08     -V/T= 2.0046
   1 Symmetry operations used in ECPInt.
 ECPInt:  NShTT=   13041 NPrTT=   39612 LenC2=   12327 LenP2D=   28778.
 LDataN:  DoStor=T MaxTD1= 7 Len=  274
 Calling FoFJK, ICntrl=      2127 FMM=F ISym2X=0 I1Cent= 0 IOpClX= 0 NMat=1 NMatS=1 NMatT=0.
 ***** Axes restored to original set *****
 -------------------------------------------------------------------
 Center     Atomic                   Forces (Hartrees/Bohr)
 Number     Number              X              Y              Z
 -------------------------------------------------------------------
      1        6          -0.000328300    0.000018086    0.001938417
      2        6          -0.000195090    0.000425028   -0.002157034
      3        6           0.001744138    0.000549672    0.008144257
      4        6          -0.000147702    0.001034144   -0.003735530
      5        6          -0.002079724   -0.000892112    0.004129740
      6        6           0.001997761    0.000293206    0.001503603
      7        1          -0.000026437    0.000120244   -0.000442240
      8        1          -0.000284553   -0.000633822    0.000183395
      9        1          -0.000346876   -0.000039617    0.000269115
     10        8           0.000753080    0.000454410   -0.001847539
     11        1          -0.000150656   -0.000123609   -0.000828290
     12        8          -0.000086971    0.000429029   -0.003777449
     13        1           0.000135275   -0.000317802    0.001118558
     14        6           0.004022541   -0.009668981   -0.009323094
     15        1          -0.000325980    0.000970233    0.001779326
     16        1          -0.001336985    0.002175912    0.000257166
     17        6          -0.013323070    0.009162311    0.005427075
     18        1           0.002268815   -0.001567232    0.000142667
     19        1          -0.000354693   -0.001929617   -0.001224701
     20        7           0.008773574   -0.000796908   -0.000863113
     21        1          -0.000708148    0.000337426   -0.000694329
 -------------------------------------------------------------------
 Cartesian Forces:  Max     0.013323070 RMS     0.003414155

 GradGradGradGradGradGradGradGradGradGradGradGradGradGradGradGradGradGrad
 Berny optimization.
 Using GEDIIS/GDIIS optimizer.
 FormGI is forming the generalized inverse of G from B-inverse, IUseBI=4.
 Internal  Forces:  Max     0.008192043 RMS     0.001469446
 Search for a local minimum.
 Step number   2 out of a maximum of  110
 All quantities printed in internal units (Hartrees-Bohrs-Radians)
 Mixed Optimization -- RFO/linear search
 Update second derivatives using D2CorX and points    1    2
 DE= -3.28D-03 DEPred=-2.83D-03 R= 1.16D+00
 TightC=F SS=  1.41D+00  RLast= 2.76D-01 DXNew= 5.0454D-01 8.2747D-01
 Trust test= 1.16D+00 RLast= 2.76D-01 DXMaxT set to 5.05D-01
 ITU=  1  0
 Use linear search instead of GDIIS.
     Eigenvalues ---    0.00242   0.01340   0.01560   0.01806   0.01903
     Eigenvalues ---    0.02028   0.02096   0.02160   0.02187   0.02207
     Eigenvalues ---    0.02248   0.02253   0.02301   0.02333   0.04621
     Eigenvalues ---    0.04834   0.05965   0.06358   0.08589   0.11852
     Eigenvalues ---    0.12809   0.13890   0.14807   0.15969   0.15999
     Eigenvalues ---    0.16000   0.16000   0.16272   0.16855   0.22020
     Eigenvalues ---    0.22296   0.22364   0.23458   0.24470   0.24758
     Eigenvalues ---    0.24885   0.26037   0.30789   0.33668   0.34592
     Eigenvalues ---    0.34783   0.35286   0.35714   0.36071   0.36266
     Eigenvalues ---    0.41459   0.42658   0.43035   0.43712   0.46067
     Eigenvalues ---    0.46889   0.47644   0.48140   0.49632   0.51081
     Eigenvalues ---    0.54339   0.55236
 RFO step:  Lambda=-1.27925031D-03 EMin= 2.42041178D-03
 Quartic linear search produced a step of  0.27481.
 Iteration  1 RMS(Cart)=  0.03391898 RMS(Int)=  0.00054012
 Iteration  2 RMS(Cart)=  0.00075137 RMS(Int)=  0.00007898
 Iteration  3 RMS(Cart)=  0.00000048 RMS(Int)=  0.00007898
 Variable       Old X    -DE/DX   Delta X   Delta X   Delta X     New X
                                 (Linear)    (Quad)   (Total)
    R1        2.62013   0.00082   0.00566   0.00131   0.00698   2.62711
    R2        2.61466  -0.00045  -0.00262  -0.00060  -0.00323   2.61143
    R3        2.05373  -0.00009   0.00042  -0.00037   0.00006   2.05378
    R4        2.65162  -0.00095  -0.00151  -0.00278  -0.00428   2.64734
    R5        2.04380  -0.00042   0.00165  -0.00169  -0.00003   2.04376
    R6        2.64966  -0.00222  -0.00263  -0.00623  -0.00885   2.64081
    R7        2.77623   0.00471   0.00870   0.01450   0.02321   2.79943
    R8        2.61055   0.00094   0.00254   0.00209   0.00462   2.61517
    R9        2.04789   0.00030   0.00163   0.00082   0.00245   2.05034
   R10        2.62037   0.00186  -0.00586   0.00617   0.00030   2.62067
   R11        2.60363  -0.00247  -0.00320  -0.00605  -0.00925   2.59438
   R12        2.63511  -0.00255  -0.00791  -0.00625  -0.01416   2.62094
   R13        1.82249  -0.00079  -0.00051  -0.00176  -0.00228   1.82021
   R14        1.81451   0.00011  -0.00052   0.00033  -0.00019   1.81432
   R15        2.06910   0.00010   0.00171   0.00013   0.00184   2.07094
   R16        2.05984   0.00096   0.00006   0.00349   0.00355   2.06339
   R17        3.15105  -0.00675  -0.01399  -0.04427  -0.05827   3.09278
   R18        2.11704  -0.00127  -0.00299  -0.00478  -0.00776   2.10928
   R19        2.08276   0.00063   0.00137   0.00216   0.00353   2.08629
   R20        2.60924   0.00819   0.01202   0.01785   0.02986   2.63910
   R21        1.93253   0.00062  -0.00401   0.00237  -0.00164   1.93089
    A1        2.10101  -0.00011  -0.00008  -0.00004  -0.00012   2.10089
    A2        2.10330  -0.00040  -0.00034  -0.00348  -0.00383   2.09947
    A3        2.07882   0.00051   0.00041   0.00350   0.00389   2.08271
    A4        2.10994  -0.00059  -0.00124  -0.00394  -0.00522   2.10472
    A5        2.11048   0.00049   0.00299   0.00274   0.00566   2.11614
    A6        2.06078   0.00009  -0.00202   0.00047  -0.00161   2.05917
    A7        2.04993   0.00158  -0.00063   0.00769   0.00706   2.05699
    A8        2.09478  -0.00008  -0.00101   0.00075  -0.00030   2.09448
    A9        2.13134  -0.00148   0.00124  -0.00674  -0.00554   2.12580
   A10        2.12235  -0.00026   0.00132  -0.00213  -0.00081   2.12154
   A11        2.09601   0.00046  -0.00059   0.00361   0.00302   2.09902
   A12        2.06483  -0.00019  -0.00073  -0.00148  -0.00220   2.06262
   A13        2.09198  -0.00071  -0.00029  -0.00289  -0.00320   2.08878
   A14        2.10539  -0.00098  -0.00054  -0.00521  -0.00574   2.09965
   A15        2.08582   0.00169   0.00084   0.00809   0.00894   2.09476
   A16        2.09084   0.00010   0.00102   0.00148   0.00249   2.09333
   A17        2.16253  -0.00005   0.00665  -0.00180   0.00485   2.16738
   A18        2.02982  -0.00005  -0.00767   0.00032  -0.00734   2.02248
   A19        1.86464  -0.00054   0.00694  -0.00540   0.00154   1.86617
   A20        1.87341   0.00204   0.00438   0.01530   0.01968   1.89309
   A21        1.96358  -0.00171   0.00201  -0.02279  -0.02095   1.94262
   A22        1.95807  -0.00075  -0.00274  -0.00735  -0.01036   1.94771
   A23        1.92305   0.00088  -0.00494   0.00853   0.00358   1.92663
   A24        1.91633  -0.00032  -0.00096  -0.00801  -0.00942   1.90691
   A25        1.90292   0.00131   0.01188   0.01493   0.02685   1.92977
   A26        1.79177   0.00092  -0.00520   0.01932   0.01401   1.80578
   A27        1.73806   0.00249   0.00118   0.02113   0.02226   1.76032
   A28        1.78505   0.00181  -0.00862   0.02372   0.01504   1.80010
   A29        2.03176  -0.00061  -0.00038   0.00005  -0.00034   2.03141
   A30        1.85907  -0.00098  -0.00598  -0.01316  -0.01945   1.83962
   A31        2.07652  -0.00174   0.00650  -0.02321  -0.01681   2.05970
   A32        1.94046  -0.00036   0.00460  -0.00168   0.00278   1.94324
   A33        1.88201  -0.00158  -0.00746  -0.01115  -0.01861   1.86340
    D1       -0.00355   0.00001   0.00118  -0.00095   0.00022  -0.00333
    D2       -3.07622   0.00031   0.00653   0.01164   0.01822  -3.05800
    D3        3.12698  -0.00006  -0.00187  -0.00300  -0.00486   3.12212
    D4        0.05432   0.00023   0.00348   0.00959   0.01313   0.06745
    D5        0.01717  -0.00010  -0.00255  -0.00394  -0.00647   0.01070
    D6       -3.12571  -0.00007  -0.00197  -0.00213  -0.00408  -3.12978
    D7       -3.11351  -0.00002   0.00046  -0.00188  -0.00139  -3.11490
    D8        0.02679   0.00001   0.00104  -0.00006   0.00101   0.02780
    D9       -0.01769   0.00007   0.00147   0.00620   0.00768  -0.01002
   D10       -3.03393   0.00001   0.00509  -0.00812  -0.00310  -3.03702
   D11        3.05688  -0.00020  -0.00360  -0.00594  -0.00945   3.04743
   D12        0.04065  -0.00026   0.00002  -0.02027  -0.02023   0.02042
   D13        0.02621  -0.00011  -0.00276  -0.00696  -0.00973   0.01648
   D14       -3.11665  -0.00010  -0.00119  -0.00687  -0.00807  -3.12473
   D15        3.03963   0.00007  -0.00662   0.00829   0.00168   3.04131
   D16       -0.10323   0.00008  -0.00505   0.00838   0.00333  -0.09990
   D17       -2.94565   0.00077  -0.00668  -0.01511  -0.02197  -2.96763
   D18       -0.77451  -0.00158  -0.00853  -0.04927  -0.05769  -0.83219
   D19        1.21013  -0.00036  -0.01977  -0.02466  -0.04440   1.16573
   D20        0.32732   0.00048  -0.00276  -0.03122  -0.03413   0.29319
   D21        2.49847  -0.00188  -0.00460  -0.06537  -0.06984   2.42862
   D22       -1.80008  -0.00066  -0.01584  -0.04077  -0.05655  -1.85664
   D23       -0.01330   0.00006   0.00143   0.00242   0.00384  -0.00947
   D24        3.12594   0.00007   0.00312   0.00238   0.00549   3.13143
   D25        3.12954   0.00005  -0.00011   0.00233   0.00221   3.13175
   D26       -0.01440   0.00006   0.00158   0.00229   0.00387  -0.01054
   D27       -0.00885   0.00006   0.00124   0.00322   0.00446  -0.00439
   D28        3.13393   0.00003   0.00067   0.00155   0.00225   3.13618
   D29        3.13506   0.00005  -0.00043   0.00328   0.00283   3.13789
   D30       -0.00534   0.00002  -0.00100   0.00161   0.00062  -0.00472
   D31        3.11031  -0.00013  -0.00303  -0.00673  -0.00977   3.10054
   D32       -0.03362  -0.00012  -0.00134  -0.00679  -0.00812  -0.04175
   D33       -0.10581  -0.00028  -0.00461  -0.01809  -0.02269  -0.12850
   D34        3.03454  -0.00025  -0.00403  -0.01634  -0.02038   3.01416
   D35        2.82899   0.00022   0.01825   0.01325   0.03153   2.86052
   D36        0.91997   0.00006   0.02650   0.01494   0.04139   0.96137
   D37       -1.19875  -0.00044   0.02718   0.00006   0.02722  -1.17153
   D38        0.66603   0.00090   0.01102   0.02611   0.03719   0.70323
   D39       -1.24298   0.00074   0.01926   0.02780   0.04706  -1.19592
   D40        2.92148   0.00024   0.01995   0.01292   0.03288   2.95436
   D41       -1.36559   0.00026   0.00957   0.01934   0.02894  -1.33665
   D42        3.00858   0.00010   0.01782   0.02103   0.03880   3.04739
   D43        0.88986  -0.00040   0.01850   0.00614   0.02462   0.91449
   D44       -1.27903  -0.00007  -0.00632   0.00037  -0.00595  -1.28497
   D45        0.80100   0.00144   0.00060   0.01049   0.01097   0.81197
   D46        2.96991  -0.00176   0.00174  -0.02943  -0.02757   2.94234
         Item               Value     Threshold  Converged?
 Maximum Force            0.008192     0.000450     NO 
 RMS     Force            0.001469     0.000300     NO 
 Maximum Displacement     0.126488     0.001800     NO 
 RMS     Displacement     0.033872     0.001200     NO 
 Predicted change in Energy=-8.532654D-04
 GradGradGradGradGradGradGradGradGradGradGradGradGradGradGradGradGradGrad

                          Input orientation:                          
 ---------------------------------------------------------------------
 Center     Atomic      Atomic             Coordinates (Angstroms)
 Number     Number       Type             X           Y           Z
 ---------------------------------------------------------------------
      1          6           0        1.509028   10.900601  106.528303
      2          6           0        1.051481   10.850964  105.216485
      3          6           0       -0.280906   10.519519  104.938201
      4          6           0       -1.121150   10.231502  106.017050
      5          6           0       -0.667784   10.288099  107.323344
      6          6           0        0.652708   10.626866  107.577805
      7          1           0        2.548123   11.140582  106.737729
      8          1           0        1.725509   10.987073  104.381722
      9          1           0       -2.156154    9.954860  105.845436
     10          8           0       -1.518848   10.011577  108.364520
     11          1           0       -1.000084   10.070572  109.173954
     12          8           0        1.020795   10.666286  108.914431
     13          1           0        1.970774   10.795946  108.964553
     14          6           0       -0.722270   10.340356  103.535478
     15          1           0       -1.813118   10.259407  103.468560
     16          1           0       -0.382283   11.160130  102.899375
     17          6           0       -0.006553    9.024421  102.876217
     18          1           0       -0.651693    8.860921  101.980157
     19          1           0       -0.271416    8.215838  103.579707
     20          7           0        1.374813    9.099461  102.685013
     21          1           0        1.529029    9.725021  101.891961
 ---------------------------------------------------------------------
                    Distance matrix (angstroms):
                    1          2          3          4          5
     1  C    0.000000
     2  C    1.390208   0.000000
     3  C    2.424358   1.400911   0.000000
     4  C    2.761686   2.396865   1.397455   0.000000
     5  C    2.397032   2.776966   2.427372   1.383888   0.000000
     6  C    1.381908   2.405217   2.801904   2.395588   1.386800
     7  H    1.086816   2.153602   3.409902   3.848295   3.378126
     8  H    2.159201   1.081513   2.134005   3.368776   3.856106
     9  H    3.846335   3.389321   2.158348   1.084995   2.123795
    10  O    3.651040   4.149853   3.678338   2.391055   1.372888
    11  H    3.739527   4.525427   4.319766   3.163321   1.892749
    12  O    2.446811   3.702682   4.186452   3.629295   2.350720
    13  H    2.481829   3.859551   4.621470   4.308871   3.148566
    14  C    3.774860   2.496537   1.481396   2.515782   3.788619
    15  H    4.561777   3.407507   2.138966   2.640909   4.021439
    16  H    4.100430   2.742310   2.139502   3.335892   4.518125
    17  C    4.376617   3.151595   2.561712   3.544603   4.670230
    18  H    5.432738   4.163519   3.411518   4.288985   5.530529
    19  H    4.367168   3.372386   2.674425   3.274995   4.297231
    20  N    4.246527   3.095264   3.136053   4.314374   5.205687
    21  H    4.783101   3.542353   3.631346   4.929131   5.885828
                    6          7          8          9         10
     6  C    0.000000
     7  H    2.135938   0.000000
     8  H    3.390516   2.500206   0.000000
     9  H    3.367848   4.932783   4.274953   0.000000
    10  O    2.390221   4.523423   5.228778   2.599069   0.000000
    11  H    2.364081   4.435075   5.588767   3.525468   0.963214
    12  O    1.386944   2.701059   4.598367   4.474133   2.679708
    13  H    1.920666   2.326123   4.593367   5.240978   3.626671
    14  C    4.279376   4.646531   2.669455   2.746004   4.905332
    15  H    4.806372   5.521264   3.726290   2.420735   4.911052
    16  H    4.821129   4.829143   2.582651   3.643977   5.699015
    17  C    5.010727   5.090756   3.019700   3.781899   5.777801
    18  H    6.012793   6.170103   3.992383   4.289579   6.544926
    19  H    4.759396   5.145584   3.508658   3.421982   5.260723
    20  N    5.176274   4.686933   2.562203   4.815362   6.439102
    21  H    5.823236   5.150130   2.798265   5.409562   7.160006
                   11         12         13         14         15
    11  H    0.000000
    12  O    2.122776   0.000000
    13  H    3.065292   0.960096   0.000000
    14  C    5.651759   5.663714   6.077410   0.000000
    15  H    5.766125   6.152571   6.694150   1.095892   0.000000
    16  H    6.398372   6.196242   6.515818   1.091901   1.783974
    17  C    6.460885   6.341231   6.641985   1.636631   2.267099
    18  H    7.303106   7.358038   7.707363   2.147727   2.349472
    19  H    5.938569   6.011139   6.378161   2.172281   2.562299
    20  N    6.977790   6.433189   6.531910   2.580866   3.481713
    21  H    7.716427   7.103476   7.166839   2.854493   3.733789
                   16         17         18         19         20
    16  H    0.000000
[...]
     14          6           0       -2.125839   -1.030826    0.310983
     15          1           0       -2.070006   -2.089648    0.020181
     16          1           0       -2.474310   -0.999901    1.349524
     17          6           0       -3.212496   -0.269691   -0.534532
     18          1           0       -4.034980   -1.023937   -0.639409
     19          1           0       -2.788499   -0.184036   -1.550562
     20          7           0       -3.592665    1.018443   -0.072571
     21          1           0       -4.073289    0.872688    0.820431
 ---------------------------------------------------------------------
 Rotational constants (GHZ):           2.5915771           0.6209519           0.5131050

 **********************************************************************

            Population analysis using the SCF Density.

 **********************************************************************

 Orbital symmetries:
       Occupied  (A) (A) (A) (A) (A) (A) (A) (A) (A) (A) (A) (A)
                 (A) (A) (A) (A) (A) (A) (A) (A) (A) (A) (A) (A)
                 (A) (A) (A) (A) (A) (A) (A) (A) (A) (A) (A) (A)
                 (A) (A) (A) (A) (A)
       Virtual   (A) (A) (A) (A) (A) (A) (A) (A) (A) (A) (A) (A)
                 (A) (A) (A) (A) (A) (A) (A) (A) (A) (A) (A) (A)
                 (A) (A) (A) (A) (A) (A) (A) (A) (A) (A) (A) (A)
                 (A) (A) (A) (A) (A) (A) (A) (A) (A) (A) (A) (A)
                 (A) (A) (A) (A) (A) (A) (A) (A) (A) (A) (A) (A)
                 (A) (A) (A) (A) (A) (A) (A) (A) (A) (A) (A) (A)
                 (A) (A) (A) (A) (A) (A) (A) (A) (A) (A) (A) (A)
                 (A) (A) (A) (A) (A) (A) (A) (A) (A) (A) (A) (A)
                 (A) (A) (A) (A) (A) (A) (A) (A) (A) (A) (A) (A)
                 (A) (A) (A) (A) (A) (A) (A) (A) (A) (A) (A) (A)
                 (A) (A) (A) (A) (A) (A) (A) (A) (A) (A) (A) (A)
                 (A) (A) (A) (A) (A) (A) (A) (A) (A) (A) (A) (A)
                 (A) (A) (A) (A) (A) (A) (A) (A) (A) (A) (A) (A)
                 (A) (A) (A) (A) (A) (A) (A) (A) (A) (A) (A) (A)
                 (A) (A) (A) (A) (A) (A) (A) (A) (A) (A) (A) (A)
                 (A) (A) (A) (A) (A) (A) (A) (A) (A) (A) (A) (A)
                 (A) (A) (A) (A) (A) (A) (A) (A) (A) (A) (A) (A)
                 (A) (A) (A) (A) (A) (A) (A) (A) (A) (A) (A) (A)
                 (A) (A) (A) (A) (A) (A) (A) (A) (A) (A) (A) (A)
                 (A) (A) (A) (A) (A) (A) (A) (A) (A) (A) (A) (A)
                 (A) (A) (A) (A) (A) (A) (A) (A) (A) (A) (A) (A)
                 (A) (A) (A) (A) (A) (A) (A) (A) (A) (A) (A) (A)
                 (A) (A) (A) (A) (A) (A) (A) (A) (A) (A) (A) (A)
                 (A) (A) (A) (A) (A) (A) (A) (A) (A) (A) (A) (A)
                 (A) (A) (A) (A) (A) (A) (A) (A) (A) (A) (A) (A)
                 (A) (A) (A) (A) (A) (A) (A) (A) (A) (A) (A) (A)
                 (A) (A) (A) (A) (A) (A) (A) (A) (A) (A) (A) (A)
                 (A) (A) (A) (A) (A) (A) (A) (A) (A) (A) (A) (A)
                 (A) (A) (A) (A) (A) (A) (A) (A) (A) (A) (A) (A)
                 (A) (A) (A) (A) (A) (A) (A) (A) (A) (A) (A) (A)
 The electronic state is 1-A.
 Alpha  occ. eigenvalues --  -19.55673 -19.53767 -14.43472 -10.47395 -10.47246
 Alpha  occ. eigenvalues --  -10.41495 -10.40440 -10.40140 -10.38267 -10.36382
 Alpha  occ. eigenvalues --  -10.35679  -1.08842  -1.05780  -0.82692  -0.74031
 Alpha  occ. eigenvalues --   -0.71219  -0.69463  -0.62697  -0.58292  -0.55752
 Alpha  occ. eigenvalues --   -0.50841  -0.48601  -0.46512  -0.42079  -0.40607
 Alpha  occ. eigenvalues --   -0.39635  -0.37713  -0.36300  -0.34627  -0.34415
 Alpha  occ. eigenvalues --   -0.31338  -0.29752  -0.27995  -0.26792  -0.25012
 Alpha  occ. eigenvalues --   -0.24020  -0.20712  -0.16678  -0.13572  -0.07996
 Alpha  occ. eigenvalues --   -0.00897
 Alpha virt. eigenvalues --    0.14576   0.15639   0.17737   0.19095   0.21862
 Alpha virt. eigenvalues --    0.23019   0.24702   0.26596   0.26825   0.28724
 Alpha virt. eigenvalues --    0.30355   0.31516   0.33048   0.33461   0.34076
 Alpha virt. eigenvalues --    0.34542   0.35577   0.36583   0.37334   0.38271
 Alpha virt. eigenvalues --    0.39356   0.40516   0.41753   0.41801   0.42773
 Alpha virt. eigenvalues --    0.45305   0.46229   0.47191   0.47716   0.48735
 Alpha virt. eigenvalues --    0.49448   0.50457   0.50861   0.52133   0.52752
 Alpha virt. eigenvalues --    0.52964   0.53302   0.54912   0.55820   0.55979
 Alpha virt. eigenvalues --    0.57729   0.58207   0.59380   0.60278   0.61427
 Alpha virt. eigenvalues --    0.61595   0.62952   0.63389   0.64159   0.64993
 Alpha virt. eigenvalues --    0.65768   0.66383   0.67468   0.68291   0.69537
 Alpha virt. eigenvalues --    0.70466   0.71989   0.73339   0.73487   0.75040
 Alpha virt. eigenvalues --    0.75412   0.77335   0.77464   0.78452   0.79472
 Alpha virt. eigenvalues --    0.80354   0.81849   0.82433   0.83884   0.85416
 Alpha virt. eigenvalues --    0.88922   0.89635   0.89909   0.91177   0.92725
 Alpha virt. eigenvalues --    0.93459   0.94655   0.95737   0.97033   0.99770
 Alpha virt. eigenvalues --    1.01107   1.02057   1.02787   1.04215   1.05073
 Alpha virt. eigenvalues --    1.07987   1.08575   1.09232   1.13088   1.13899
 Alpha virt. eigenvalues --    1.16198   1.20502   1.21583   1.22124   1.22718
 Alpha virt. eigenvalues --    1.24767   1.26952   1.28332   1.30354   1.32064
 Alpha virt. eigenvalues --    1.34552   1.35419   1.35935   1.38115   1.39942
 Alpha virt. eigenvalues --    1.40831   1.42163   1.45880   1.46414   1.47204
 Alpha virt. eigenvalues --    1.49815   1.51827   1.52999   1.54929   1.55497
 Alpha virt. eigenvalues --    1.57021   1.58829   1.59481   1.61579   1.63986
 Alpha virt. eigenvalues --    1.64772   1.67361   1.68775   1.69356   1.72404
 Alpha virt. eigenvalues --    1.73228   1.74487   1.75927   1.78885   1.79950
 Alpha virt. eigenvalues --    1.81602   1.83406   1.84550   1.85338   1.85976
 Alpha virt. eigenvalues --    1.86962   1.87961   1.88452   1.90375   1.91325
 Alpha virt. eigenvalues --    1.93284   1.94743   1.96009   2.01091   2.02632
 Alpha virt. eigenvalues --    2.03116   2.04753   2.05726   2.07171   2.09685
 Alpha virt. eigenvalues --    2.10187   2.12377   2.14846   2.15205   2.18036
 Alpha virt. eigenvalues --    2.19290   2.19907   2.22393   2.23808   2.25245
 Alpha virt. eigenvalues --    2.27691   2.28510   2.29703   2.31133   2.31944
 Alpha virt. eigenvalues --    2.32270   2.33225   2.35667   2.36728   2.39934
 Alpha virt. eigenvalues --    2.40646   2.43332   2.45818   2.47458   2.48563
 Alpha virt. eigenvalues --    2.49162   2.51395   2.55473   2.58809   2.59489
 Alpha virt. eigenvalues --    2.60618   2.61360   2.62907   2.65012   2.65731
 Alpha virt. eigenvalues --    2.70991   2.71373   2.72266   2.73618   2.75011
 Alpha virt. eigenvalues --    2.76468   2.77917   2.79352   2.82367   2.83036
 Alpha virt. eigenvalues --    2.85330   2.85699   2.87016   2.87479   2.89468
 Alpha virt. eigenvalues --    2.89990   2.92325   2.92751   2.94076   2.94600
 Alpha virt. eigenvalues --    2.97775   2.99279   3.00616   3.01848   3.02755
 Alpha virt. eigenvalues --    3.03775   3.05046   3.06037   3.08050   3.08305
 Alpha virt. eigenvalues --    3.09845   3.12795   3.13999   3.15865   3.16494
 Alpha virt. eigenvalues --    3.18015   3.18545   3.20142   3.22822   3.24200
 Alpha virt. eigenvalues --    3.28298   3.29254   3.29912   3.30309   3.31772
 Alpha virt. eigenvalues --    3.33427   3.34767   3.35945   3.36878   3.37682
 Alpha virt. eigenvalues --    3.39529   3.41157   3.41755   3.42924   3.44035
 Alpha virt. eigenvalues --    3.45830   3.47417   3.49567   3.51172   3.51721
 Alpha virt. eigenvalues --    3.54009   3.55199   3.56309   3.56506   3.57801
 Alpha virt. eigenvalues --    3.58905   3.59493   3.60691   3.62904   3.65296
 Alpha virt. eigenvalues --    3.66605   3.68163   3.69885   3.70361   3.73902
 Alpha virt. eigenvalues --    3.75380   3.77883   3.79199   3.83754   3.85969
 Alpha virt. eigenvalues --    3.89099   3.90486   3.95091   3.96228   3.99777
 Alpha virt. eigenvalues --    4.02140   4.03930   4.06297   4.08375   4.11198
 Alpha virt. eigenvalues --    4.12832   4.14698   4.17524   4.19705   4.20977
 Alpha virt. eigenvalues --    4.24454   4.27472   4.27955   4.30959   4.31215
 Alpha virt. eigenvalues --    4.32093   4.34238   4.35494   4.41030   4.42343
 Alpha virt. eigenvalues --    4.44157   4.47784   4.51100   4.53647   4.54886
 Alpha virt. eigenvalues --    4.56462   4.61695   4.68390   4.68879   4.70778
 Alpha virt. eigenvalues --    4.72981   4.76202   4.77109   4.84094   4.90180
 Alpha virt. eigenvalues --    4.91529   4.96199   4.99737   5.02455   5.03051
 Alpha virt. eigenvalues --    5.07524   5.09735   5.12270   5.14401   5.18178
 Alpha virt. eigenvalues --    5.21808   5.32696   5.35237   5.36897   5.41090
 Alpha virt. eigenvalues --    5.41734   5.45551   5.49367   5.52161   5.54928
 Alpha virt. eigenvalues --    5.55695   5.56539   5.62113   5.64187   5.72150
 Alpha virt. eigenvalues --    5.76700   5.88981   5.95279   5.97103   6.11308
 Alpha virt. eigenvalues --    6.27130   6.37129   6.48367   6.53310   6.55020
 Alpha virt. eigenvalues --    6.60902   6.75736   6.85541   6.87515   6.92811
 Alpha virt. eigenvalues --    7.07731   7.09523   7.30647   7.43760  22.35194
 Alpha virt. eigenvalues --   22.76889  22.79598  22.97546  23.01775  23.10415
 Alpha virt. eigenvalues --   23.23792  23.63442  32.34470  44.09015  44.31588
          Condensed to atoms (all electrons):
               1          2          3          4          5          6
     1  C    6.020423  -0.466205   0.595329  -0.290072   0.281965  -0.141802
     2  C   -0.466205   6.791186  -0.663566   0.194234  -0.395538   0.495062
     3  C    0.595329  -0.663566   6.261476   0.139263   0.275386  -0.480653
     4  C   -0.290072   0.194234   0.139263   5.521014   0.238490   0.131365
     5  C    0.281965  -0.395538   0.275386   0.238490   5.125617   0.073194
     6  C   -0.141802   0.495062  -0.480653   0.131365   0.073194   5.680277
     7  H    0.387971   0.019198   0.016436   0.001477   0.000343  -0.078674
     8  H   -0.121679   0.491775  -0.310303   0.032651  -0.024898   0.063413
     9  H   -0.016974   0.043319  -0.066036   0.415961  -0.078426   0.034829
    10  O    0.016196  -0.005714   0.002212  -0.054405   0.352026  -0.127370
    11  H    0.006637  -0.001859   0.001796   0.000838  -0.022444  -0.043223
    12  O   -0.104157   0.013899  -0.001299  -0.000855  -0.047224   0.256831
    13  H   -0.007434   0.008124  -0.001384   0.000848  -0.000309  -0.042514
    14  C    0.064441  -0.377259   0.314201  -0.012143   0.052274  -0.029476
    15  H   -0.009437   0.083479  -0.050933  -0.050431   0.005794   0.003818
    16  H    0.001241  -0.017714  -0.035737   0.005502  -0.000901   0.000034
    17  C    0.007246  -0.029627   0.021821  -0.006823   0.001140  -0.001237
    18  H   -0.002189   0.026379   0.012957  -0.003539  -0.000901   0.000631
    19  H    0.004761  -0.020260   0.024373  -0.001698   0.002808  -0.002096
    20  N   -0.018418   0.024142  -0.195396  -0.004394  -0.001287   0.005287
    21  H    0.000792   0.006209   0.003855  -0.000863   0.000295  -0.000296
               7          8          9         10         11         12
     1  C    0.387971  -0.121679  -0.016974   0.016196   0.006637  -0.104157
     2  C    0.019198   0.491775   0.043319  -0.005714  -0.001859   0.013899
     3  C    0.016436  -0.310303  -0.066036   0.002212   0.001796  -0.001299
     4  C    0.001477   0.032651   0.415961  -0.054405   0.000838  -0.000855
     5  C    0.000343  -0.024898  -0.078426   0.352026  -0.022444  -0.047224
     6  C   -0.078674   0.063413   0.034829  -0.127370  -0.043223   0.256831
     7  H    0.554630  -0.012716   0.000055  -0.000109  -0.000013  -0.003213
     8  H   -0.012716   0.601859   0.001146  -0.000001  -0.000009   0.000066
     9  H    0.000055   0.001146   0.561890   0.004690  -0.001246  -0.000135
    10  O   -0.000109  -0.000001   0.004690   7.970377   0.316266  -0.006247
    11  H   -0.000013  -0.000009  -0.001246   0.316266   0.403887   0.015739
    12  O   -0.003213   0.000066  -0.000135  -0.006247   0.015739   8.078603
    13  H    0.004518   0.000019   0.000073  -0.000385  -0.001602   0.315378
    14  C   -0.000021  -0.013420  -0.025753   0.000160   0.000039  -0.000043
    15  H   -0.000024   0.006918   0.009277  -0.000099   0.000013   0.000005
    16  H    0.000045  -0.005376   0.000678   0.000002  -0.000001  -0.000002
    17  C    0.000162  -0.067573  -0.000055  -0.000001  -0.000001   0.000000
    18  H   -0.000031   0.018585   0.000580  -0.000000   0.000000   0.000000
    19  H    0.000150  -0.021982  -0.000250   0.000001   0.000000   0.000001
    20  N   -0.000938   0.242513   0.000343  -0.000000   0.000000   0.000001
    21  H    0.000051  -0.025777  -0.000040  -0.000000   0.000000  -0.000000
              13         14         15         16         17         18
     1  C   -0.007434   0.064441  -0.009437   0.001241   0.007246  -0.002189
     2  C    0.008124  -0.377259   0.083479  -0.017714  -0.029627   0.026379
     3  C   -0.001384   0.314201  -0.050933  -0.035737   0.021821   0.012957
     4  C    0.000848  -0.012143  -0.050431   0.005502  -0.006823  -0.003539
     5  C   -0.000309   0.052274   0.005794  -0.000901   0.001140  -0.000901
     6  C   -0.042514  -0.029476   0.003818   0.000034  -0.001237   0.000631
     7  H    0.004518  -0.000021  -0.000024   0.000045   0.000162  -0.000031
     8  H    0.000019  -0.013420   0.006918  -0.005376  -0.067573   0.018585
     9  H    0.000073  -0.025753   0.009277   0.000678  -0.000055   0.000580
    10  O   -0.000385   0.000160  -0.000099   0.000002  -0.000001  -0.000000
    11  H   -0.001602   0.000039   0.000013  -0.000001  -0.000001   0.000000
    12  O    0.315378  -0.000043   0.000005  -0.000002   0.000000   0.000000
    13  H    0.407891  -0.000025   0.000001   0.000001  -0.000001   0.000000
    14  C   -0.000025   6.134200   0.080021   0.351369   0.231509  -0.178077
    15  H    0.000001   0.080021   0.827162  -0.032041  -0.015909   0.051274
    16  H    0.000001   0.351369  -0.032041   0.648285  -0.027446  -0.010613
    17  C   -0.000001   0.231509  -0.015909  -0.027446   5.122832   0.225455
    18  H    0.000000  -0.178077   0.051274  -0.010613   0.225455   0.977019
    19  H    0.000000  -0.138150   0.008622   0.018010   0.432250  -0.086349
    20  N    0.000001  -0.177024   0.037699   0.003903   0.273652  -0.008224
    21  H   -0.000000  -0.035576   0.001232   0.016531  -0.073204  -0.029333
              19         20         21
     1  C    0.004761  -0.018418   0.000792
     2  C   -0.020260   0.024142   0.006209
     3  C    0.024373  -0.195396   0.003855
     4  C   -0.001698  -0.004394  -0.000863
     5  C    0.002808  -0.001287   0.000295
     6  C   -0.002096   0.005287  -0.000296
     7  H    0.000150  -0.000938   0.000051
     8  H   -0.021982   0.242513  -0.025777
     9  H   -0.000250   0.000343  -0.000040
    10  O    0.000001  -0.000000  -0.000000
    11  H    0.000000   0.000000   0.000000
    12  O    0.000001   0.000001  -0.000000
    13  H    0.000000   0.000001  -0.000000
    14  C   -0.138150  -0.177024  -0.035576
    15  H    0.008622   0.037699   0.001232
    16  H    0.018010   0.003903   0.016531
    17  C    0.432250   0.273652  -0.073204
    18  H   -0.086349  -0.008224  -0.029333
    19  H    0.752425  -0.061007   0.026591
    20  N   -0.061007   7.418024   0.291420
    21  H    0.026591   0.291420   0.694018
 Mulliken charges:
               1
     1  C   -0.208637
     2  C   -0.219263
     3  C    0.136202
     4  C   -0.256421
     5  C    0.162595
     6  C    0.202599
     7  H    0.110702
     8  H    0.144789
     9  H    0.116075
    10  O   -0.467598
    11  H    0.325182
    12  O   -0.517350
    13  H    0.316799
    14  C   -0.241249
    15  H    0.043561
    16  H    0.084229
    17  C   -0.094191
    18  H    0.006377
    19  H    0.061798
    20  N   -0.830295
    21  H    0.124097
 Sum of Mulliken charges =  -1.00000
 Mulliken charges with hydrogens summed into heavy atoms:
               1
     1  C   -0.097935
     2  C   -0.074474
     3  C    0.136202
     4  C   -0.140346
     5  C    0.162595
     6  C    0.202599
    10  O   -0.142416
    12  O   -0.200552
    14  C   -0.113459
    17  C   -0.026016
    20  N   -0.706198
 Electronic spatial extent (au):  <R**2>=           2172.0634
 Charge=             -1.0000 electrons
 Dipole moment (field-independent basis, Debye):
    X=             11.6629    Y=             -0.9093    Z=              0.8463  Tot=             11.7288
 Quadrupole moment (field-independent basis, Debye-Ang):
   XX=           -120.2861   YY=            -74.4908   ZZ=            -72.9055
   XY=             19.8723   XZ=             -6.8561   YZ=              0.2775
 Traceless Quadrupole moment (field-independent basis, Debye-Ang):
   XX=            -31.0586   YY=             14.7367   ZZ=             16.3220
   XY=             19.8723   XZ=             -6.8561   YZ=              0.2775
 Octapole moment (field-independent basis, Debye-Ang**2):
  XXX=            228.4792  YYY=             14.7248  ZZZ=             -0.1725  XYY=             44.8083
  XXY=            -34.0343  XXZ=             20.3803  XZZ=             13.9353  YZZ=             -0.4999
  YYZ=              0.4063  XYZ=             -6.0305
 Hexadecapole moment (field-independent basis, Debye-Ang**3):
 XXXX=          -2952.7105 YYYY=           -573.0112 ZZZZ=           -129.6994 XXXY=            218.2501
 XXXZ=           -128.7966 YYYX=             98.1906 YYYZ=             -1.1669 ZZZX=            -13.8770
 ZZZY=             -0.9671 XXYY=           -560.7384 XXZZ=           -414.8604 YYZZ=           -128.5524
 XXYZ=             12.1334 YYXZ=            -16.8254 ZZXY=              0.6883
 N-N= 5.867536907975D+02 E-N=-2.390679572038D+03  KE= 5.136651590113D+02
 Unable to Open any file for archive entry.
 1\1\GINC-BIO3-HORSEA-12U\FOpt\RM062X\def2TZVP\C8H10N1O2(1-)\VIP13T32\0
 8-Apr-2023\0\\# opt m062x/def2tzvp\\Title Card Required\\-1,1\C,1.5365
 637427,10.60612638,106.5704299318\C,1.0944246379,10.4472479429,105.265
 3050494\C,-0.2717794717,10.2960481454,104.998764873\C,-1.161717369,10.
 3035386212,106.0741695484\C,-0.7187575619,10.4690205046,107.3768038167
 \C,0.6367370226,10.6256569781,107.623121943\H,2.5978919327,10.71507583
 57,106.7798095453\H,1.7610441964,10.3890679849,104.4025903243\H,-2.225
 7100425,10.1739115765,105.9105148155\O,-1.6124628295,10.4749372326,108
 .4195701569\H,-1.097086964,10.5678641482,109.2288252813\O,1.0024240109
 ,10.79481475,108.952188577\H,1.9606178509,10.7608838073,109.0057869102
 \C,-0.7555566717,10.0881776107,103.5890205135\H,-1.7890391571,9.714958
 1202,103.6265690964\H,-0.778604434,11.0478897944,103.0604584317\C,0.15
 63459946,9.1393848074,102.7268885842\H,-0.5175180842,8.8226221973,101.
 8890728191\H,0.2872653843,8.2257637869,103.3331748584\N,1.4305899069,9
 .644731071,102.3552006932\H,1.254327906,10.422278705,101.7117342307\\V
 ersion=ES64L-G16RevC.01\State=1-A\HF=-516.0134136\RMSD=6.961e-09\RMSF=
 5.861e-06\Dipole=-0.7565886,1.0975646,4.4177359\Quadrupole=8.2402752,9
 .8075938,-18.047869,3.5356643,17.3491697,-9.2824636\PG=C01 [X(C8H10N1O
 2)]\\@
 The archive entry for this job was punched.


 "WOULD YOU TELL ME PLEASE, WHICH WAY I OUGHT TO WALK FROM HERE?"
 "THAT DEPENDS A GREAT DEAL ON WHERE YOU WANT TO GO," SAID THE CAT.
 "I DON'T MUCH CARE WHERE -- ", SAID ALICE.
 "THEN IT DOESN'T MATTER WHICH WAY YOU WALK," SAID THE CAT.

                                      -- LEWIS CARROLL
 Job cpu time:       0 days 11 hours 25 minutes 27.7 seconds.
 Elapsed time:       0 days  0 hours 44 minutes 55.2 seconds.
 File lengths (MBytes):  RWF=    104 Int=      0 D2E=      0 Chk=     13 Scr=      1
 Normal termination of Gaussian 16 at Sat Apr  8 01:46:58 2023.
