 Entering Gaussian System, Link 0=g16
 Input=int1_water.gjf
 Output=int1_water.log
 Initial command:
 /home/data/vip13t32/docs/gaussian/gaussian/g16/l1.exe "/home/data/vip13t32/Rtmp/Gau-3110226.inp" -scrdir="/home/data/vip13t32/Rtmp/"
 Entering Link 1 = /home/data/vip13t32/docs/gaussian/gaussian/g16/l1.exe PID=   3110232.
  
 Copyright (c) 1988-2019, Gaussian, Inc.  All Rights Reserved.
  
 This is part of the Gaussian(R) 16 program.  It is based on
 the Gaussian(R) 09 system (copyright 2009, Gaussian, Inc.),
 the Gaussian(R) 03 system (copyright 2003, Gaussian, Inc.),
 the Gaussian(R) 98 system (copyright 1998, Gaussian, Inc.),
 the Gaussian(R) 94 system (copyright 1995, Gaussian, Inc.),
 the Gaussian 92(TM) system (copyright 1992, Gaussian, Inc.),
 the Gaussian 90(TM) system (copyright 1990, Gaussian, Inc.),
 the Gaussian 88(TM) system (copyright 1988, Gaussian, Inc.),
 the Gaussian 86(TM) system (copyright 1986, Carnegie Mellon
 University), and the Gaussian 82(TM) system (copyright 1983,
 Carnegie Mellon University). Gaussian is a federally registered
 trademark of Gaussian, Inc.
  
 This software contains proprietary and confidential information,
 including trade secrets, belonging to Gaussian, Inc.
  
 This software is provided under written license and may be
 used, copied, transmitted, or stored only in accord with that
 written license.
  
 The following legend is applicable only to US Government
 contracts under FAR:
  
                    RESTRICTED RIGHTS LEGEND
  
 Use, reproduction and disclosure by the US Government is
 subject to restrictions as set forth in subparagraphs (a)
 and (c) of the Commercial Computer Software - Restricted
 Rights clause in FAR 52.227-19.
  
 Gaussian, Inc.
 340 Quinnipiac St., Bldg. 40, Wallingford CT 06492
  
  
 ---------------------------------------------------------------
 Warning -- This program may not be used in any manner that
 competes with the business of Gaussian, Inc. or will provide
 assistance to any competitor of Gaussian, Inc.  The licensee
 of this program is prohibited from giving any competitor of
 Gaussian, Inc. access to this program.  By using this program,
 the user acknowledges that Gaussian, Inc. is engaged in the
 business of creating and licensing software in the field of
 computational chemistry and represents and warrants to the
 licensee that it is not a competitor of Gaussian, Inc. and that
 it will not use this program in any manner prohibited above.
 ---------------------------------------------------------------
  

 Cite this work as:
 Gaussian 16, Revision C.01,
 M. J. Frisch, G. W. Trucks, H. B. Schlegel, G. E. Scuseria, 
 M. A. Robb, J. R. Cheeseman, G. Scalmani, V. Barone, 
 G. A. Petersson, H. Nakatsuji, X. Li, M. Caricato, A. V. Marenich, 
 J. Bloino, B. G. Janesko, R. Gomperts, B. Mennucci, H. P. Hratchian, 
 J. V. Ortiz, A. F. Izmaylov, J. L. Sonnenberg, D. Williams-Young, 
 F. Ding, F. Lipparini, F. Egidi, J. Goings, B. Peng, A. Petrone, 
 T. Henderson, D. Ranasinghe, V. G. Zakrzewski, J. Gao, N. Rega, 
 G. Zheng, W. Liang, M. Hada, M. Ehara, K. Toyota, R. Fukuda, 
 J. Hasegawa, M. Ishida, T. Nakajima, Y. Honda, O. Kitao, H. Nakai, 
 T. Vreven, K. Throssell, J. A. Montgomery, Jr., J. E. Peralta, 
 F. Ogliaro, M. J. Bearpark, J. J. Heyd, E. N. Brothers, K. N. Kudin, 
 V. N. Staroverov, T. A. Keith, R. Kobayashi, J. Normand, 
 K. Raghavachari, A. P. Rendell, J. C. Burant, S. S. Iyengar, 
 J. Tomasi, M. Cossi, J. M. Millam, M. Klene, C. Adamo, R. Cammi, 
 J. W. Ochterski, R. L. Martin, K. Morokuma, O. Farkas, 
 J. B. Foresman, and D. J. Fox, Gaussian, Inc., Wallingford CT, 2019.
 
 ******************************************
 Gaussian 16:  ES64L-G16RevC.01  3-Jul-2019
                21-Apr-2023 
 ******************************************
 %mem=50GB
 %chk=/home/data/vip13t32/docs/g16out/mol_for_md/int1/water.chk
 %nprocshared=12
 Will use up to   12 processors via shared memory.
 ---------------------------------------------
 # opt m062x/def2tzvp scrf=(smd,solvent=water)
 ---------------------------------------------
 1/18=20,19=15,26=3,38=1/1,3;
 2/9=110,12=2,17=6,18=5,40=1/2;
 3/5=44,7=101,11=2,25=1,30=1,70=32201,71=1,72=1,74=-55/1,2,3;
 4//1;
 5/5=2,38=5,53=1/2;
 6/7=2,8=2,9=2,10=2,28=1/1;
 7//1,2,3,16;
 1/18=20,19=15,26=3/3(2);
 2/9=110/2;
 99//99;
 2/9=110/2;
 3/5=44,7=101,11=2,25=1,30=1,70=32205,71=1,72=1,74=-55/1,2,3;
 4/5=5,16=3,69=1/1;
 5/5=2,38=5,53=1/2;
 7//1,2,3,16;
 1/18=20,19=15,26=3/3(-5);
 2/9=110/2;
 6/7=2,8=2,9=2,10=2,19=2,28=1/1;
 99/9=1/99;
 -------------------
 Title Card Required
 -------------------
 Symbolic Z-matrix:
 Charge =  0 Multiplicity = 1
 C                     24.95165   41.36108   41.44247 
 C                     25.60126   40.26491   40.89948 
 C                     24.88778   39.27252   40.24424 
 C                     23.50906   39.39665   40.13303 
 C                     22.8455   40.48717   40.67031 
 C                     23.57907   41.47921   41.33271 
 O                     21.49587   40.59078   40.55567 
 O                     22.86829   42.53986   41.85037 
 C                     25.59887   38.10588   39.62236 
 C                     26.01654   38.43378   38.18569 
 N                     26.85716   37.37785   37.66232 
 H                     25.51426   42.12919   41.95645 
 H                     26.67338   40.18292   40.99311 
 H                     22.92416   38.64325   39.62956 
 H                     21.22518   41.40937   40.99368 
 H                     23.4775   43.14692   42.28295 
 H                     26.49798   37.86347   40.19008 
 H                     24.94939   37.22903   39.61433 
 H                     26.60112   39.35945   38.18513 
 H                     25.1168   38.60907   37.56901 
 H                     26.38563   36.48096   37.71906 
 C                     27.29324   37.56381   36.29803 
 H                     26.56874   38.19464   35.72756 
 O                     27.35504   36.29232   35.71223 
 H                     27.90381   36.34577   34.91974 
 C                     28.66984   38.28584   36.27364 
 H                     28.51344   39.26673   36.73305 
 C                     29.67978   37.50615   37.11077 
 H                     30.67618   37.92607   36.99425 
 H                     29.3874   37.55717   38.15521 
 H                     29.6941   36.45818   36.82373 
 C                     29.07673   38.49247   34.83876 
 C                     28.60535   39.60794   34.15231 
 C                     29.85691   37.57209   34.14671 
 C                     28.908    39.80313   32.81769 
 H                     27.997    40.33226   34.67591 
 C                     30.16309   37.76778   32.81009 
 H                     30.24757   36.70134   34.65171 
 C                     29.68926   38.88154   32.14059 
 H                     28.5351   40.67725   32.30411 
 H                     30.77545   37.04449   32.29132 
 H                     29.92898   39.03289   31.09866 
 

 GradGradGradGradGradGradGradGradGradGradGradGradGradGradGradGradGradGrad
 Berny optimization.
 Initialization pass.
                           ----------------------------
                           !    Initial Parameters    !
                           ! (Angstroms and Degrees)  !
 --------------------------                            --------------------------
 ! Name  Definition              Value          Derivative Info.                !
 --------------------------------------------------------------------------------
 ! R1    R(1,2)                  1.3851         estimate D2E/DX2                !
 ! R2    R(1,6)                  1.382          estimate D2E/DX2                !
 ! R3    R(1,12)                 1.082          estimate D2E/DX2                !
 ! R4    R(2,3)                  1.3868         estimate D2E/DX2                !
 ! R5    R(2,13)                 1.0793         estimate D2E/DX2                !
 ! R6    R(3,4)                  1.3888         estimate D2E/DX2                !
 ! R7    R(3,9)                  1.5011         estimate D2E/DX2                !
 ! R8    R(4,5)                  1.385          estimate D2E/DX2                !
 ! R9    R(4,14)                 1.0785         estimate D2E/DX2                !
 ! R10   R(5,6)                  1.4004         estimate D2E/DX2                !
 ! R11   R(5,7)                  1.3585         estimate D2E/DX2                !
 ! R12   R(6,8)                  1.3777         estimate D2E/DX2                !
 ! R13   R(7,15)                 0.9671         estimate D2E/DX2                !
 ! R14   R(8,16)                 0.9627         estimate D2E/DX2                !
 ! R15   R(9,10)                 1.5317         estimate D2E/DX2                !
 ! R16   R(9,17)                 1.0906         estimate D2E/DX2                !
 ! R17   R(9,18)                 1.0912         estimate D2E/DX2                !
 ! R18   R(10,11)                1.4476         estimate D2E/DX2                !
 ! R19   R(10,19)                1.0948         estimate D2E/DX2                !
 ! R20   R(10,20)                1.1048         estimate D2E/DX2                !
 ! R21   R(11,21)                1.0149         estimate D2E/DX2                !
 ! R22   R(11,22)                1.4443         estimate D2E/DX2                !
 ! R23   R(22,23)                1.1173         estimate D2E/DX2                !
 ! R24   R(22,24)                1.4013         estimate D2E/DX2                !
 ! R25   R(22,26)                1.5547         estimate D2E/DX2                !
 ! R26   R(24,25)                0.9654         estimate D2E/DX2                !
 ! R27   R(26,27)                1.0944         estimate D2E/DX2                !
 ! R28   R(26,28)                1.526          estimate D2E/DX2                !
 ! R29   R(26,32)                1.5057         estimate D2E/DX2                !
 ! R30   R(28,29)                1.0875         estimate D2E/DX2                !
 ! R31   R(28,30)                1.0858         estimate D2E/DX2                !
 ! R32   R(28,31)                1.0867         estimate D2E/DX2                !
 ! R33   R(32,33)                1.392          estimate D2E/DX2                !
 ! R34   R(32,34)                1.3909         estimate D2E/DX2                !
 ! R35   R(33,35)                1.3824         estimate D2E/DX2                !
 ! R36   R(33,36)                1.0812         estimate D2E/DX2                !
 ! R37   R(34,37)                1.3851         estimate D2E/DX2                !
 ! R38   R(34,38)                1.0797         estimate D2E/DX2                !
 ! R39   R(35,39)                1.385          estimate D2E/DX2                !
 ! R40   R(35,40)                1.0802         estimate D2E/DX2                !
 ! R41   R(37,39)                1.3832         estimate D2E/DX2                !
 ! R42   R(37,41)                1.0804         estimate D2E/DX2                !
 ! R43   R(39,42)                1.0798         estimate D2E/DX2                !
 ! A1    A(2,1,6)              120.1537         estimate D2E/DX2                !
 ! A2    A(2,1,12)             120.2773         estimate D2E/DX2                !
 ! A3    A(6,1,12)             119.5689         estimate D2E/DX2                !
 ! A4    A(1,2,3)              120.6815         estimate D2E/DX2                !
 ! A5    A(1,2,13)             119.4721         estimate D2E/DX2                !
 ! A6    A(3,2,13)             119.8458         estimate D2E/DX2                !
 ! A7    A(2,3,4)              118.9886         estimate D2E/DX2                !
 ! A8    A(2,3,9)              120.5419         estimate D2E/DX2                !
 ! A9    A(4,3,9)              120.435          estimate D2E/DX2                !
 ! A10   A(3,4,5)              120.994          estimate D2E/DX2                !
 ! A11   A(3,4,14)             120.8868         estimate D2E/DX2                !
 ! A12   A(5,4,14)             118.1185         estimate D2E/DX2                !
 ! A13   A(4,5,6)              119.3616         estimate D2E/DX2                !
 ! A14   A(4,5,7)              120.2192         estimate D2E/DX2                !
 ! A15   A(6,5,7)              120.4191         estimate D2E/DX2                !
 ! A16   A(1,6,5)              119.8197         estimate D2E/DX2                !
 ! A17   A(1,6,8)              123.2534         estimate D2E/DX2                !
 ! A18   A(5,6,8)              116.9269         estimate D2E/DX2                !
 ! A19   A(5,7,15)             107.7234         estimate D2E/DX2                !
 ! A20   A(6,8,16)             109.136          estimate D2E/DX2                !
 ! A21   A(3,9,10)             110.571          estimate D2E/DX2                !
 ! A22   A(3,9,17)             110.3413         estimate D2E/DX2                !
 ! A23   A(3,9,18)             110.2191         estimate D2E/DX2                !
 ! A24   A(10,9,17)            108.1216         estimate D2E/DX2                !
 ! A25   A(10,9,18)            109.1122         estimate D2E/DX2                !
 ! A26   A(17,9,18)            108.4154         estimate D2E/DX2                !
 ! A27   A(9,10,11)            109.9572         estimate D2E/DX2                !
 ! A28   A(9,10,19)            109.0927         estimate D2E/DX2                !
 ! A29   A(9,10,20)            109.6006         estimate D2E/DX2                !
 ! A30   A(11,10,19)           107.8478         estimate D2E/DX2                !
 ! A31   A(11,10,20)           112.7582         estimate D2E/DX2                !
 ! A32   A(19,10,20)           107.4824         estimate D2E/DX2                !
 ! A33   A(10,11,21)           110.7699         estimate D2E/DX2                !
 ! A34   A(10,11,22)           115.0199         estimate D2E/DX2                !
 ! A35   A(21,11,22)           107.8708         estimate D2E/DX2                !
 ! A36   A(11,22,23)           111.0518         estimate D2E/DX2                !
 ! A37   A(11,22,24)           106.9402         estimate D2E/DX2                !
 ! A38   A(11,22,26)           109.9962         estimate D2E/DX2                !
 ! A39   A(23,22,24)           109.1154         estimate D2E/DX2                !
 ! A40   A(23,22,26)           107.6951         estimate D2E/DX2                !
 ! A41   A(24,22,26)           112.0734         estimate D2E/DX2                !
 ! A42   A(22,24,25)           108.5413         estimate D2E/DX2                !
 ! A43   A(22,26,27)           106.4475         estimate D2E/DX2                !
 ! A44   A(22,26,28)           109.8846         estimate D2E/DX2                !
 ! A45   A(22,26,32)           108.5398         estimate D2E/DX2                !
 ! A46   A(27,26,28)           108.7988         estimate D2E/DX2                !
 ! A47   A(27,26,32)           108.4009         estimate D2E/DX2                !
 ! A48   A(28,26,32)           114.4593         estimate D2E/DX2                !
 ! A49   A(26,28,29)           110.5061         estimate D2E/DX2                !
 ! A50   A(26,28,30)           108.9938         estimate D2E/DX2                !
 ! A51   A(26,28,31)           110.8888         estimate D2E/DX2                !
 ! A52   A(29,28,30)           109.3678         estimate D2E/DX2                !
 ! A53   A(29,28,31)           109.3901         estimate D2E/DX2                !
 ! A54   A(30,28,31)           107.6349         estimate D2E/DX2                !
 ! A55   A(26,32,33)           119.2357         estimate D2E/DX2                !
 ! A56   A(26,32,34)           122.3377         estimate D2E/DX2                !
 ! A57   A(33,32,34)           118.3479         estimate D2E/DX2                !
 ! A58   A(32,33,35)           121.0053         estimate D2E/DX2                !
 ! A59   A(32,33,36)           119.2471         estimate D2E/DX2                !
 ! A60   A(35,33,36)           119.7471         estimate D2E/DX2                !
 ! A61   A(32,34,37)           120.705          estimate D2E/DX2                !
 ! A62   A(32,34,38)           120.2554         estimate D2E/DX2                !
 ! A63   A(37,34,38)           119.0308         estimate D2E/DX2                !
 ! A64   A(33,35,39)           120.1027         estimate D2E/DX2                !
 ! A65   A(33,35,40)           119.8475         estimate D2E/DX2                !
 ! A66   A(39,35,40)           120.0497         estimate D2E/DX2                !
 ! A67   A(34,37,39)           120.3388         estimate D2E/DX2                !
 ! A68   A(34,37,41)           119.6078         estimate D2E/DX2                !
 ! A69   A(39,37,41)           120.0534         estimate D2E/DX2                !
 ! A70   A(35,39,37)           119.4991         estimate D2E/DX2                !
 ! A71   A(35,39,42)           120.2452         estimate D2E/DX2                !
 ! A72   A(37,39,42)           120.2555         estimate D2E/DX2                !
 ! D1    D(6,1,2,3)             -0.1855         estimate D2E/DX2                !
 ! D2    D(6,1,2,13)          -179.8935         estimate D2E/DX2                !
 ! D3    D(12,1,2,3)           179.7078         estimate D2E/DX2                !
 ! D4    D(12,1,2,13)           -0.0003         estimate D2E/DX2                !
 ! D5    D(2,1,6,5)             -0.0113         estimate D2E/DX2                !
 ! D6    D(2,1,6,8)            179.8761         estimate D2E/DX2                !
 ! D7    D(12,1,6,5)          -179.9053         estimate D2E/DX2                !
 ! D8    D(12,1,6,8)            -0.0179         estimate D2E/DX2                !
 ! D9    D(1,2,3,4)              0.3492         estimate D2E/DX2                !
 ! D10   D(1,2,3,9)            178.2218         estimate D2E/DX2                !
 ! D11   D(13,2,3,4)          -179.9438         estimate D2E/DX2                !
 ! D12   D(13,2,3,9)            -2.0713         estimate D2E/DX2                !
 ! D13   D(2,3,4,5)             -0.3224         estimate D2E/DX2                !
 ! D14   D(2,3,4,14)           179.9826         estimate D2E/DX2                !
 ! D15   D(9,3,4,5)           -178.1973         estimate D2E/DX2                !
 ! D16   D(9,3,4,14)             2.1077         estimate D2E/DX2                !
 ! D17   D(2,3,9,10)           -87.949          estimate D2E/DX2                !
 ! D18   D(2,3,9,17)            31.6184         estimate D2E/DX2                !
 ! D19   D(2,3,9,18)           151.3266         estimate D2E/DX2                !
 ! D20   D(4,3,9,10)            89.8926         estimate D2E/DX2                !
 ! D21   D(4,3,9,17)          -150.5399         estimate D2E/DX2                !
 ! D22   D(4,3,9,18)           -30.8318         estimate D2E/DX2                !
 ! D23   D(3,4,5,6)              0.1306         estimate D2E/DX2                !
 ! D24   D(3,4,5,7)           -179.8118         estimate D2E/DX2                !
 ! D25   D(14,4,5,6)           179.8338         estimate D2E/DX2                !
 ! D26   D(14,4,5,7)            -0.1085         estimate D2E/DX2                !
 ! D27   D(4,5,6,1)              0.0385         estimate D2E/DX2                !
 ! D28   D(4,5,6,8)           -179.8559         estimate D2E/DX2                !
 ! D29   D(7,5,6,1)            179.9807         estimate D2E/DX2                !
 ! D30   D(7,5,6,8)              0.0864         estimate D2E/DX2                !
 ! D31   D(4,5,7,15)           179.7092         estimate D2E/DX2                !
 ! D32   D(6,5,7,15)            -0.2325         estimate D2E/DX2                !
 ! D33   D(1,6,8,16)            -0.2597         estimate D2E/DX2                !
 ! D34   D(5,6,8,16)           179.6307         estimate D2E/DX2                !
 ! D35   D(3,9,10,11)          172.1738         estimate D2E/DX2                !
 ! D36   D(3,9,10,19)           54.0913         estimate D2E/DX2                !
 ! D37   D(3,9,10,20)          -63.3418         estimate D2E/DX2                !
 ! D38   D(17,9,10,11)          51.2775         estimate D2E/DX2                !
 ! D39   D(17,9,10,19)         -66.8051         estimate D2E/DX2                !
 ! D40   D(17,9,10,20)         175.7618         estimate D2E/DX2                !
 ! D41   D(18,9,10,11)         -66.4448         estimate D2E/DX2                !
 ! D42   D(18,9,10,19)         175.4726         estimate D2E/DX2                !
 ! D43   D(18,9,10,20)          58.0395         estimate D2E/DX2                !
 ! D44   D(9,10,11,21)          56.1639         estimate D2E/DX2                !
 ! D45   D(9,10,11,22)         178.7932         estimate D2E/DX2                !
 ! D46   D(19,10,11,21)        175.0134         estimate D2E/DX2                !
 ! D47   D(19,10,11,22)        -62.3573         estimate D2E/DX2                !
 ! D48   D(20,10,11,21)        -66.4761         estimate D2E/DX2                !
 ! D49   D(20,10,11,22)         56.1532         estimate D2E/DX2                !
 ! D50   D(10,11,22,23)        -26.6659         estimate D2E/DX2                !
 ! D51   D(10,11,22,24)       -145.6158         estimate D2E/DX2                !
 ! D52   D(10,11,22,26)         92.4545         estimate D2E/DX2                !
 ! D53   D(21,11,22,23)         97.5051         estimate D2E/DX2                !
 ! D54   D(21,11,22,24)        -21.4448         estimate D2E/DX2                !
 ! D55   D(21,11,22,26)       -143.3745         estimate D2E/DX2                !
 ! D56   D(11,22,24,25)       -161.7813         estimate D2E/DX2                !
 ! D57   D(23,22,24,25)         78.0211         estimate D2E/DX2                !
 ! D58   D(26,22,24,25)        -41.1669         estimate D2E/DX2                !
 ! D59   D(11,22,26,27)        -62.1446         estimate D2E/DX2                !
 ! D60   D(11,22,26,28)         55.5058         estimate D2E/DX2                !
 ! D61   D(11,22,26,32)       -178.6418         estimate D2E/DX2                !
 ! D62   D(23,22,26,27)         59.0094         estimate D2E/DX2                !
 ! D63   D(23,22,26,28)        176.6597         estimate D2E/DX2                !
 ! D64   D(23,22,26,32)        -57.4879         estimate D2E/DX2                !
 ! D65   D(24,22,26,27)        179.0292         estimate D2E/DX2                !
 ! D66   D(24,22,26,28)        -63.3204         estimate D2E/DX2                !
 ! D67   D(24,22,26,32)         62.5319         estimate D2E/DX2                !
 ! D68   D(22,26,28,29)        172.4374         estimate D2E/DX2                !
 ! D69   D(22,26,28,30)        -67.3514         estimate D2E/DX2                !
 ! D70   D(22,26,28,31)         50.9622         estimate D2E/DX2                !
 ! D71   D(27,26,28,29)        -71.3837         estimate D2E/DX2                !
 ! D72   D(27,26,28,30)         48.8275         estimate D2E/DX2                !
 ! D73   D(27,26,28,31)        167.1411         estimate D2E/DX2                !
 ! D74   D(32,26,28,29)         50.0269         estimate D2E/DX2                !
 ! D75   D(32,26,28,30)        170.2381         estimate D2E/DX2                !
 ! D76   D(32,26,28,31)        -71.4483         estimate D2E/DX2                !
 ! D77   D(22,26,32,33)         84.7816         estimate D2E/DX2                !
 ! D78   D(22,26,32,34)        -91.9365         estimate D2E/DX2                !
 ! D79   D(27,26,32,33)        -30.4511         estimate D2E/DX2                !
 ! D80   D(27,26,32,34)        152.8308         estimate D2E/DX2                !
 ! D81   D(28,26,32,33)       -152.08           estimate D2E/DX2                !
 ! D82   D(28,26,32,34)         31.2019         estimate D2E/DX2                !
 ! D83   D(26,32,33,35)       -177.1508         estimate D2E/DX2                !
 ! D84   D(26,32,33,36)          3.1055         estimate D2E/DX2                !
 ! D85   D(34,32,33,35)         -0.3014         estimate D2E/DX2                !
 ! D86   D(34,32,33,36)        179.9548         estimate D2E/DX2                !
 ! D87   D(26,32,34,37)        177.1732         estimate D2E/DX2                !
 ! D88   D(26,32,34,38)         -3.9165         estimate D2E/DX2                !
 ! D89   D(33,32,34,37)          0.4273         estimate D2E/DX2                !
 ! D90   D(33,32,34,38)        179.3375         estimate D2E/DX2                !
 ! D91   D(32,33,35,39)          0.1082         estimate D2E/DX2                !
 ! D92   D(32,33,35,40)       -179.7879         estimate D2E/DX2                !
 ! D93   D(36,33,35,39)        179.8507         estimate D2E/DX2                !
 ! D94   D(36,33,35,40)         -0.0454         estimate D2E/DX2                !
 ! D95   D(32,34,37,39)         -0.3626         estimate D2E/DX2                !
 ! D96   D(32,34,37,41)        179.6361         estimate D2E/DX2                !
 ! D97   D(38,34,37,39)       -179.2861         estimate D2E/DX2                !
 ! D98   D(38,34,37,41)          0.7126         estimate D2E/DX2                !
 ! D99   D(33,35,39,37)         -0.0336         estimate D2E/DX2                !
 ! D100  D(33,35,39,42)       -179.8584         estimate D2E/DX2                !
 ! D101  D(40,35,39,37)        179.8623         estimate D2E/DX2                !
 ! D102  D(40,35,39,42)          0.0375         estimate D2E/DX2                !
 ! D103  D(34,37,39,35)          0.1599         estimate D2E/DX2                !
 ! D104  D(34,37,39,42)        179.9847         estimate D2E/DX2                !
 ! D105  D(41,37,39,35)       -179.8388         estimate D2E/DX2                !
 ! D106  D(41,37,39,42)         -0.014          estimate D2E/DX2                !
 --------------------------------------------------------------------------------
 Trust Radius=3.00D-01 FncErr=1.00D-07 GrdErr=1.00D-06 EigMax=2.50D+02 EigMin=1.00D-04
 Number of steps in this run=    231 maximum allowed number of steps=    252.
 GradGradGradGradGradGradGradGradGradGradGradGradGradGradGradGradGradGrad

                          Input orientation:                          
 ---------------------------------------------------------------------
 Center     Atomic      Atomic             Coordinates (Angstroms)
 Number     Number       Type             X           Y           Z
 ---------------------------------------------------------------------
      1          6           0       24.951650   41.361079   41.442468
      2          6           0       25.601262   40.264912   40.899483
      3          6           0       24.887784   39.272525   40.244235
      4          6           0       23.509055   39.396648   40.133027
      5          6           0       22.845503   40.487166   40.670312
      6          6           0       23.579068   41.479208   41.332711
      7          8           0       21.495865   40.590779   40.555671
      8          8           0       22.868289   42.539863   41.850372
      9          6           0       25.598870   38.105876   39.622363
     10          6           0       26.016541   38.433775   38.185694
     11          7           0       26.857158   37.377853   37.662320
     12          1           0       25.514260   42.129192   41.956455
     13          1           0       26.673380   40.182916   40.993113
     14          1           0       22.924163   38.643251   39.629564
     15          1           0       21.225184   41.409371   40.993685
     16          1           0       23.477505   43.146924   42.282947
     17          1           0       26.497978   37.863466   40.190077
     18          1           0       24.949393   37.229029   39.614326
     19          1           0       26.601118   39.359446   38.185128
     20          1           0       25.116801   38.609066   37.569009
     21          1           0       26.385629   36.480958   37.719060
     22          6           0       27.293237   37.563805   36.298026
     23          1           0       26.568741   38.194641   35.727558
     24          8           0       27.355044   36.292320   35.712230
     25          1           0       27.903812   36.345772   34.919742
     26          6           0       28.669845   38.285838   36.273643
     27          1           0       28.513441   39.266727   36.733052
     28          6           0       29.679782   37.506155   37.110771
     29          1           0       30.676177   37.926073   36.994255
     30          1           0       29.387403   37.557169   38.155209
     31          1           0       29.694104   36.458184   36.823727
     32          6           0       29.076734   38.492470   34.838762
     33          6           0       28.605348   39.607937   34.152308
     34          6           0       29.856911   37.572088   34.146708
     35          6           0       28.908001   39.803126   32.817686
     36          1           0       27.996998   40.332261   34.675911
     37          6           0       30.163089   37.767779   32.810091
     38          1           0       30.247566   36.701335   34.651705
     39          6           0       29.689264   38.881541   32.140593
     40          1           0       28.535104   40.677248   32.304111
     41          1           0       30.775452   37.044494   32.291316
     42          1           0       29.928983   39.032888   31.098660
 ---------------------------------------------------------------------
                    Distance matrix (angstroms):
                    1          2          3          4          5
     1  C    0.000000
     2  C    1.385066   0.000000
     3  C    2.408713   1.386807   0.000000
     4  C    2.766713   2.391373   1.388765   0.000000
     5  C    2.407448   2.774189   2.414085   1.384993   0.000000
     6  C    1.382021   2.398222   2.786928   2.404412   1.400371
     7  O    3.649962   4.132636   3.652383   2.378552   1.358455
     8  O    2.428232   3.680860   4.163356   3.638633   2.367832
     9  C    3.785237   2.508481   1.501146   2.508824   3.788109
    10  C    4.506625   3.300026   2.493027   3.317637   4.521639
    11  N    5.812621   4.515707   3.759588   4.624902   5.899934
    12  H    1.081994   2.144831   3.388911   3.848705   3.387135
    13  H    2.134091   1.079318   2.139622   3.372079   3.853494
    14  H    3.844986   3.377772   2.151654   1.078509   2.118812
    15  H    3.753703   4.524237   4.306092   3.163519   1.892212
    16  H    2.463484   3.838008   4.599587   4.322929   3.174009
    17  H    4.024041   2.659755   2.140351   3.359696   4.522720
    18  H    4.518400   3.360527   2.139265   2.653713   4.019566
    19  H    4.163837   3.031056   2.680110   3.654661   4.642471
    20  H    4.754423   3.750811   2.765766   3.127191   4.278334
    21  H    6.303621   5.004860   4.051283   4.754278   6.106724
    22  C    6.809375   5.597514   4.927321   5.690921   6.888052
    23  H    6.730639   5.654277   4.938403   5.496786   6.599166
    24  O    8.018993   6.764971   5.958864   6.631134   7.906660
    25  H    8.741539   7.511238   6.783254   7.469945   8.706704
    26  C    7.070985   5.893329   5.571637   6.539304   7.622303
    27  H    6.265083   5.180377   5.047161   6.051495   7.008353
    28  C    7.481930   6.212843   5.991820   7.126421   8.262212
    29  H    8.022224   6.817312   6.773537   7.961289   9.021755
    30  H    6.704603   5.403496   5.249099   6.469190   7.596517
    31  H    8.237840   6.917682   6.536138   7.605319   8.827924
    32  C    8.297840   7.207828   6.882944   7.736008   8.764361
    33  C    8.340829   7.414884   7.144533   7.860397   8.742610
    34  C    9.573199   8.423883   8.047580   8.914051  10.010741
    35  C    9.615965   8.744324   8.461519   9.100992   9.944120
    36  H    7.491255   6.669103   6.465020   7.127210   7.905362
    37  C   10.704617   9.616871   9.239026  10.027701  11.078141
    38  H    9.791547   8.562823   8.161781   9.094896  10.263853
    39  C   10.729304   9.764406   9.427412  10.116290  11.053108
    40  H    9.839630   9.091637   8.849958   9.391114  10.119339
    41  H   11.674466  10.547221  10.142864  10.946488  12.039255
    42  H   11.712756  10.784395  10.445700  11.089075  11.996130
                    6          7          8          9         10
     6  C    0.000000
     7  O    2.394333   0.000000
     8  O    1.377740   2.712698   0.000000
     9  C    4.287687   4.886764   5.663951   0.000000
    10  C    5.011951   5.541296   6.340450   1.531661   0.000000
    11  N    6.406150   6.887513   7.752238   2.440302   1.447594
    12  H    2.134597   4.525087   2.679751   4.652119   5.303492
    13  H    3.372013   5.211945   4.557281   2.710650   3.372319
    14  H    3.372279   2.586614   4.485387   2.728165   3.419275
    15  H    2.379199   0.967066   2.170650   5.650021   6.300483
    16  H    1.922118   3.666641   0.962698   6.082028   6.741510
    17  H    4.785315   5.709030   6.148162   1.090621   2.138828
    18  H    4.784836   4.910636   6.126650   1.091213   2.152024
    19  H    4.851129   5.761880   6.122343   2.154433   1.094805
    20  H    4.976725   5.094950   6.231937   2.168376   1.104789
    21  H    6.776264   6.989047   8.133249   2.623339   2.041437
    22  C    7.380615   7.803821   8.670055   3.770403   2.439281
    23  H    7.151522   7.401771   8.370373   4.014727   2.530720
    24  O    8.529455   8.733020   9.840709   4.654275   3.534890
    25  H    9.283412   9.531293  10.571513   5.524977   4.311379
    26  C    7.855431   8.666862   9.102455   4.547219   3.273813
    27  H    7.099294   8.100117   8.292655   4.265023   3.006408
    28  C    8.415976   9.399933   9.705590   4.829245   3.928776
    29  H    9.045216  10.201101  10.287470   5.719994   4.836270
    30  H    7.695171   8.788707   8.998906   4.099585   3.483113
    31  H    9.106881   9.910442  10.432916   5.226681   4.391172
    32  C    9.017555   9.723966  10.202394   5.926873   4.535436
    33  C    8.962328   9.618408  10.038437   6.420015   4.934448
    34  C   10.310942  10.958758  11.526754   6.956913   5.639535
    35  C   10.183929  10.744140  11.205234   7.754652   6.249093
    36  H    8.071343   8.769443   9.091208   5.930868   4.454777
    37  C   11.391185  11.961777  12.558407   8.206915   6.821622
    38  H   10.579829  11.250638  11.847487   6.949140   5.778581
    39  C   11.339197  11.868732  12.417279   8.562118   7.087499
    40  H   10.330588  10.846501  11.256697   8.293988   6.780070
    41  H   12.377458  12.922323  13.568267   9.037023   7.702015
    42  H   12.289902  12.766344  13.332351   9.605349   8.117400
                   11         12         13         14         15
    11  N    0.000000
    12  H    6.543561   0.000000
    13  H    4.358478   2.461621   0.000000
    14  H    4.575995   4.926948   4.276268   0.000000
    15  H    7.685718   4.454351   5.584536   3.521189   0.000000
    16  H    8.127387   2.300163   4.545617   5.256396   3.123178
    17  H    2.598920   4.720615   2.460788   3.700594   6.404809
    18  H    2.733504   5.460424   3.687632   2.470185   5.766075
    19  H    2.065331   4.803713   2.927132   4.014889   6.402410
    20  H    2.133878   5.639055   4.077307   3.009106   5.891927
    21  H    1.014880   7.114587   4.950425   4.506360   7.851281
    22  C    1.444313   7.485007   5.411821   5.599389   8.582474
    23  H    2.119819   7.442565   5.629410   5.358157   8.162119
    24  O    2.286728   8.743449   6.594629   6.364361   9.573566
    25  H    3.111657   9.416646   7.288585   7.228951  10.350695
    26  C    2.457375   7.551386   5.464263   6.663544   9.351911
    27  H    2.678555   6.668788   4.730047   6.326021   8.709914
    28  C    2.878867   7.886996   5.592503   7.299021  10.089220
    29  H    3.915580   8.302712   6.091518   8.219059  10.837439
    30  H    2.584034   7.096062   4.723787   6.717646   9.461407
    31  H    3.097950   8.716440   6.354697   7.647179  10.659522
    32  C    3.760500   8.750915   6.819805   7.799272  10.394143
    33  C    4.511056   8.764488   7.131599   7.950272  10.223327
    34  C    4.625556  10.030850   7.989026   8.903488  11.666728
    35  C    5.792959  10.022232   8.483830   9.140750  11.333695
    36  H    4.352746   7.899321   6.456106   7.288696   9.323728
    37  C    5.884331  11.148520   9.218069   9.983673  12.653796
    38  H    4.584359  10.257932   8.069055   9.065448  11.991234
    39  C    6.385246  11.150293   9.442258  10.094952  12.506311
    40  H    6.512443  10.217699   8.899951   9.448919  11.378912
    41  H    6.656714  12.122260  10.119187  10.865020  13.637852
    42  H    7.433497  12.123060  10.479585  11.045164  13.390866
                   16         17         18         19         20
    16  H    0.000000
    17  H    6.435704   0.000000
    18  H    6.656536   1.769778   0.000000
    19  H    6.394847   2.503680   3.051144   0.000000
    20  H    6.745418   3.055089   2.473024   1.773660   0.000000
    21  H    8.586114   2.833704   2.492873   2.923926   2.482193
    22  C    9.030521   3.983754   4.074743   2.695275   2.728523
    23  H    8.778039   4.475350   4.319915   2.719829   2.381348
    24  O   10.256472   4.822259   4.678775   4.011345   3.718154
    25  H   10.957401   5.661819   5.616748   4.630549   4.461899
    26  C    9.311406   4.498207   5.110653   3.014306   3.795599
    27  H    8.439071   4.240549   5.015615   2.402936   3.559285
    28  C    9.850783   4.442261   5.359214   3.750614   4.716693
    29  H   10.346421   5.260661   6.336143   4.480942   5.630585
    30  H    9.121978   3.547292   4.683229   3.318506   4.437134
    31  H   10.639005   4.849985   5.558231   4.453908   5.112088
    32  C   10.413030   5.973458   6.437176   4.251880   4.811331
    33  C   10.243363   6.628638   6.989911   4.510246   4.984130
    34  C   11.746233   6.920234   7.355017   5.486681   5.937685
    35  C   11.413257   7.995163   8.275921   5.859009   6.194678
    36  H    9.285211   6.224792   6.580721   3.899930   4.431134
    37  C   12.781519   8.240534   8.588976   6.641691   6.987137
    38  H   12.067112   6.788485   7.278510   5.731249   6.202809
    39  C   12.635141   8.718657   9.002992   6.804516   7.102771
    40  H   11.456691   8.617175   8.842329   6.329555   6.609185
    41  H   13.796100   9.019863   9.359674   7.584266   7.894445
    42  H   13.551204   9.787400  10.028299   7.835774   8.074783
                   21         22         23         24         25
    21  H    0.000000
    22  C    2.003908   0.000000
    23  H    2.633689   1.117265   0.000000
    24  O    2.236676   1.401304   2.058478   0.000000
    25  H    3.187372   1.938059   2.419359   0.965422   0.000000
    26  C    3.250303   1.554662   2.172824   2.453161   2.486707
    27  H    3.641471   2.139647   2.437673   3.351277   3.491664
    28  C    3.503212   2.521800   3.473596   2.972157   3.049781
    29  H    4.585031   3.472788   4.306703   3.916971   3.806175
    30  H    3.218556   2.799054   3.774218   3.420303   3.759890
    31  H    3.427558   2.694981   3.739621   2.595022   2.615901
    32  C    4.425420   2.484498   2.677441   2.927084   2.447573
    33  C    5.237067   3.241021   2.937106   3.871684   3.423862
    34  C    5.099222   3.346739   3.701178   3.216831   2.432289
    35  C    6.436041   4.442385   4.065306   4.807891   4.168972
    36  H    5.166217   3.284948   2.777643   4.219856   3.995026
    37  C    6.326381   4.521432   4.648996   4.299361   3.402509
    38  H    4.936780   3.490313   4.113536   3.107843   2.385677
    39  C    6.913472   4.976105   4.803729   4.990916   4.164329
    40  H    7.179886   5.214127   4.663680   5.677624   5.099191
    41  H    7.003466   5.333782   5.552209   4.895673   3.955143
    42  H    7.930788   6.011552   5.781053   5.951546   5.091422
                   26         27         28         29         30
    26  C    0.000000
    27  H    1.094378   0.000000
    28  C    1.525996   2.145376   0.000000
    29  H    2.161963   2.557931   1.087525   0.000000
    30  H    2.141528   2.389337   1.085790   1.773371   0.000000
    31  H    2.166107   3.047967   1.086665   1.774330   1.753476
    32  C    1.505701   2.122523   2.549217   2.743205   3.459787
    33  C    2.500433   2.604824   3.784759   3.897905   4.565137
    34  C    2.538191   3.371333   2.970082   2.984129   4.035931
    35  C    3.781866   3.971585   4.929736   4.908513   5.810620
    36  H    2.682035   2.373584   4.092332   4.282809   4.662604
    37  C    3.807145   4.511963   4.335652   4.218477   5.405214
    38  H    2.762342   3.731009   2.648984   2.677915   3.707677
    39  C    4.298393   4.756218   5.156980   5.044299   6.166092
    40  H    4.636181   4.648177   5.871124   5.843852   6.685556
    41  H    4.672627   5.457475   4.963947   4.785883   6.047707
    42  H    5.378099   5.814190   6.207937   6.044946   7.229519
                   31         32         33         34         35
    31  H    0.000000
    32  C    2.908530   0.000000
    33  C    4.271160   1.392010   0.000000
    34  C    2.904086   1.390941   2.389796   0.000000
    35  C    5.277779   2.414754   1.382358   2.764825   0.000000
    36  H    4.743601   2.139434   1.081154   3.370146   2.136096
    37  C    4.247853   2.412644   2.759400   1.385131   2.391221
    38  H    2.254577   2.148023   3.375591   1.079743   3.844368
    39  C    5.272990   2.794045   2.397817   2.401515   1.384972
    40  H    6.290525   3.389849   2.136397   3.845043   1.080232
    41  H    4.696362   3.386999   3.839777   2.136482   3.372609
    42  H    6.281771   3.873854   3.377493   3.380788   2.142597
                   36         37         38         39         40
    36  H    0.000000
    37  C    3.840547   0.000000
    38  H    4.271915   2.129785   0.000000
    39  C    3.375824   1.383186   3.372045   0.000000
    40  H    2.456422   3.372145   4.924592   2.140885   0.000000
    41  H    4.920925   1.080397   2.442921   2.139454   4.268047
    42  H    4.268215   2.141097   4.261662   1.079812   2.469804
                   41         42
    41  H    0.000000
    42  H    2.468328   0.000000
 Stoichiometry    C17H21NO3
 Framework group  C1[X(C17H21NO3)]
 Deg. of freedom   120
 Full point group                 C1      NOp   1
 Largest Abelian subgroup         C1      NOp   1
 Largest concise Abelian subgroup C1      NOp   1
                         Standard orientation:                         
 ---------------------------------------------------------------------
 Center     Atomic      Atomic             Coordinates (Angstroms)
 Number     Number       Type             X           Y           Z
 ---------------------------------------------------------------------
      1          6           0       -4.441121    0.517138    1.569682
      2          6           0       -3.332256   -0.294718    1.397292
      3          6           0       -3.008266   -0.793444    0.144480
      4          6           0       -3.809281   -0.460781   -0.940129
      5          6           0       -4.920926    0.350352   -0.783565
      6          6           0       -5.237731    0.843068    0.488403
      7          8           0       -5.695731    0.662705   -1.854786
      8          8           0       -6.355535    1.642386    0.587264
      9          6           0       -1.783609   -1.640405   -0.046071
     10          6           0       -0.561632   -0.762745   -0.333246
     11          7           0        0.638883   -1.571628   -0.332204
     12          1           0       -4.690534    0.898816    2.550920
     13          1           0       -2.718745   -0.543707    2.249663
     14          1           0       -3.585475   -0.831297   -1.927961
     15          1           0       -6.415889    1.227580   -1.542528
     16          1           0       -6.470858    1.911644    1.504318
     17          1           0       -1.580226   -2.220886    0.854558
     18          1           0       -1.929410   -2.332751   -0.876821
     19          1           0       -0.463198   -0.015131    0.460468
     20          1           0       -0.710391   -0.219903   -1.283904
     21          1           0        0.560481   -2.332921   -0.998737
     22          6           0        1.858988   -0.854348   -0.620121
     23          1           0        1.655294    0.049839   -1.244009
     24          8           0        2.687430   -1.728795   -1.336137
     25          1           0        3.593262   -1.397622   -1.293338
     26          6           0        2.519526   -0.376142    0.703504
     27          1           0        1.808048    0.308767    1.175055
     28          6           0        2.744463   -1.566822    1.631055
     29          1           0        3.324361   -1.267748    2.501104
     30          1           0        1.781286   -1.949687    1.954544
     31          1           0        3.260613   -2.370077    1.112200
     32          6           0        3.767809    0.394551    0.364450
     33          6           0        3.668270    1.748283    0.055916
     34          6           0        5.017065   -0.211495    0.282071
     35          6           0        4.781871    2.477300   -0.317367
     36          1           0        2.704079    2.233882    0.114413
     37          6           0        6.134161    0.518413   -0.089300
     38          1           0        5.131437   -1.257355    0.524846
     39          6           0        6.021120    1.863393   -0.391715
     40          1           0        4.683783    3.527735   -0.549455
     41          1           0        7.096973    0.031082   -0.141831
     42          1           0        6.892910    2.431182   -0.680836
 ---------------------------------------------------------------------
 Rotational constants (GHZ):           0.7110152           0.0973588           0.0937570
 Standard basis: def2TZVP (5D, 7F)
 There are   882 symmetry adapted cartesian basis functions of A   symmetry.
 There are   777 symmetry adapted basis functions of A   symmetry.
   777 basis functions,  1239 primitive gaussians,   882 cartesian basis functions
    77 alpha electrons       77 beta electrons
       nuclear repulsion energy      1566.1870311336 Hartrees.
 NAtoms=   42 NActive=   42 NUniq=   42 SFac= 1.00D+00 NAtFMM=   60 NAOKFM=F Big=F
 Integral buffers will be    131072 words long.
 Raffenetti 2 integral format.
 Two-electron integral symmetry is turned on.
 ------------------------------------------------------------------------------
 Polarizable Continuum Model (PCM)
 =================================
 Model                : PCM.
 Atomic radii         : SMD-Coulomb.
 Polarization charges : Total charges.
 Charge compensation  : None.
 Solution method      : On-the-fly selection.
 Cavity type          : VdW (van der Waals Surface) (Alpha=1.000).
 Cavity algorithm     : GePol (No added spheres)
                        Default sphere list used, NSphG=   42.
                        Lebedev-Laikov grids with approx.  5.0 points / Ang**2.
                        Smoothing algorithm: York/Karplus (Gamma=1.0000).
                        Polarization charges: spherical gaussians, with
                                              point-specific exponents (IZeta= 3).
                        Self-potential: point-specific (ISelfS= 7).
                        Self-field    : sphere-specific E.n sum rule (ISelfD= 2).
 1st derivatives      : Analytical E(r).r(x)/FMM algorithm (CHGder, D1EAlg=3).
                        Cavity 1st derivative terms included.
 Solvent              : Water, Eps=  78.355300 Eps(inf)=   1.777849
 ------------------------------------------------------------------------------
 ------------------------------------------------------------------------------
 Atomic radii for non-electrostatic terms: SMD-CDS.
 ------------------------------------------------------------------------------
 Nuclear repulsion after PCM non-electrostatic terms =     1566.1973706637 Hartrees.
 One-electron integrals computed using PRISM.
   1 Symmetry operations used in ECPInt.
 ECPInt:  NShTT=   49770 NPrTT=  149856 LenC2=   39629 LenP2D=   84563.
 LDataN:  DoStor=T MaxTD1= 6 Len=  172
 NBasis=   777 RedAO= T EigKep=  7.41D-06  NBF=   777
 NBsUse=   777 1.00D-06 EigRej= -1.00D+00 NBFU=   777
 ExpMin= 9.52D-02 ExpMax= 2.70D+04 ExpMxC= 9.22D+02 IAcc=3 IRadAn=         5 AccDes= 0.00D+00
 Harris functional with IExCor= 1009 and IRadAn=       5 diagonalized for initial guess.
 HarFok:  IExCor= 1009 AccDes= 0.00D+00 IRadAn=         5 IDoV= 1 UseB2=F ITyADJ=14
 ICtDFT=  3500011 ScaDFX=  1.000000  1.000000  1.000000  1.000000
 FoFCou: FMM=F IPFlag=           0 FMFlag=      100000 FMFlg1=           0
         NFxFlg=           0 DoJE=T BraDBF=F KetDBF=T FulRan=T
         wScrn=  0.000000 ICntrl=       500 IOpCl=  0 I1Cent=   200000004 NGrid=           0
         NMat0=    1 NMatS0=      1 NMatT0=    0 NMatD0=    1 NMtDS0=    0 NMtDT0=    0
 Petite list used in FoFCou.
 Requested convergence on RMS density matrix=1.00D-08 within 128 cycles.
 Requested convergence on MAX density matrix=1.00D-06.
 Requested convergence on             energy=1.00D-06.
 No special actions if energy rises.
 Inv3:  Mode=1 IEnd=    26320332.
 Iteration    1 A*A^-1 deviation from unit magnitude is 5.33D-15 for   2937.
 Iteration    1 A*A^-1 deviation from orthogonality  is 2.77D-15 for   2536    366.
 Iteration    1 A^-1*A deviation from unit magnitude is 5.11D-15 for   2937.
 Iteration    1 A^-1*A deviation from orthogonality  is 1.75D-15 for   2617   2473.
 Error on total polarization charges =  0.07275
 SCF Done:  E(RM062X) =  -940.865067188     A.U. after   13 cycles
            NFock= 13  Conv=0.51D-08     -V/T= 2.0047
 SMD-CDS (non-electrostatic) energy       (kcal/mol) =       6.49
 (included in total energy above)

 **********************************************************************

            Population analysis using the SCF Density.

 **********************************************************************

 Orbital symmetries:
       Occupied  (A) (A) (A) (A) (A) (A) (A) (A) (A) (A) (A) (A)
                 (A) (A) (A) (A) (A) (A) (A) (A) (A) (A) (A) (A)
                 (A) (A) (A) (A) (A) (A) (A) (A) (A) (A) (A) (A)
                 (A) (A) (A) (A) (A) (A) (A) (A) (A) (A) (A) (A)
                 (A) (A) (A) (A) (A) (A) (A) (A) (A) (A) (A) (A)
                 (A) (A) (A) (A) (A) (A) (A) (A) (A) (A) (A) (A)
                 (A) (A) (A) (A) (A)
       Virtual   (A) (A) (A) (A) (A) (A) (A) (A) (A) (A) (A) (A)
                 (A) (A) (A) (A) (A) (A) (A) (A) (A) (A) (A) (A)
                 (A) (A) (A) (A) (A) (A) (A) (A) (A) (A) (A) (A)
                 (A) (A) (A) (A) (A) (A) (A) (A) (A) (A) (A) (A)
                 (A) (A) (A) (A) (A) (A) (A) (A) (A) (A) (A) (A)
                 (A) (A) (A) (A) (A) (A) (A) (A) (A) (A) (A) (A)
                 (A) (A) (A) (A) (A) (A) (A) (A) (A) (A) (A) (A)
                 (A) (A) (A) (A) (A) (A) (A) (A) (A) (A) (A) (A)
                 (A) (A) (A) (A) (A) (A) (A) (A) (A) (A) (A) (A)
                 (A) (A) (A) (A) (A) (A) (A) (A) (A) (A) (A) (A)
                 (A) (A) (A) (A) (A) (A) (A) (A) (A) (A) (A) (A)
                 (A) (A) (A) (A) (A) (A) (A) (A) (A) (A) (A) (A)
                 (A) (A) (A) (A) (A) (A) (A) (A) (A) (A) (A) (A)
                 (A) (A) (A) (A) (A) (A) (A) (A) (A) (A) (A) (A)
                 (A) (A) (A) (A) (A) (A) (A) (A) (A) (A) (A) (A)
                 (A) (A) (A) (A) (A) (A) (A) (A) (A) (A) (A) (A)
                 (A) (A) (A) (A) (A) (A) (A) (A) (A) (A) (A) (A)
                 (A) (A) (A) (A) (A) (A) (A) (A) (A) (A) (A) (A)
                 (A) (A) (A) (A) (A) (A) (A) (A) (A) (A) (A) (A)
                 (A) (A) (A) (A) (A) (A) (A) (A) (A) (A) (A) (A)
                 (A) (A) (A) (A) (A) (A) (A) (A) (A) (A) (A) (A)
                 (A) (A) (A) (A) (A) (A) (A) (A) (A) (A) (A) (A)
                 (A) (A) (A) (A) (A) (A) (A) (A) (A) (A) (A) (A)
                 (A) (A) (A) (A) (A) (A) (A) (A) (A) (A) (A) (A)
                 (A) (A) (A) (A) (A) (A) (A) (A) (A) (A) (A) (A)
                 (A) (A) (A) (A) (A) (A) (A) (A) (A) (A) (A) (A)
                 (A) (A) (A) (A) (A) (A) (A) (A) (A) (A) (A) (A)
                 (A) (A) (A) (A) (A) (A) (A) (A) (A) (A) (A) (A)
                 (A) (A) (A) (A) (A) (A) (A) (A) (A) (A) (A) (A)
                 (A) (A) (A) (A) (A) (A) (A) (A) (A) (A) (A) (A)
                 (A) (A) (A) (A) (A) (A) (A) (A) (A) (A) (A) (A)
                 (A) (A) (A) (A) (A) (A) (A) (A) (A) (A) (A) (A)
                 (A) (A) (A) (A) (A) (A) (A) (A) (A) (A) (A) (A)
                 (A) (A) (A) (A) (A) (A) (A) (A) (A) (A) (A) (A)
                 (A) (A) (A) (A) (A) (A) (A) (A) (A) (A) (A) (A)
                 (A) (A) (A) (A) (A) (A) (A) (A) (A) (A) (A) (A)
                 (A) (A) (A) (A) (A) (A) (A) (A) (A) (A) (A) (A)
                 (A) (A) (A) (A) (A) (A) (A) (A) (A) (A) (A) (A)
                 (A) (A) (A) (A) (A) (A) (A) (A) (A) (A) (A) (A)
                 (A) (A) (A) (A) (A) (A) (A) (A) (A) (A) (A) (A)
                 (A) (A) (A) (A) (A) (A) (A) (A) (A) (A) (A) (A)
                 (A) (A) (A) (A) (A) (A) (A) (A) (A) (A) (A) (A)
                 (A) (A) (A) (A) (A) (A) (A) (A) (A) (A) (A) (A)
                 (A) (A) (A) (A) (A) (A) (A) (A) (A) (A) (A) (A)
                 (A) (A) (A) (A) (A) (A) (A) (A) (A) (A) (A) (A)
                 (A) (A) (A) (A) (A) (A) (A) (A) (A) (A) (A) (A)
                 (A) (A) (A) (A) (A) (A) (A) (A) (A) (A) (A) (A)
                 (A) (A) (A) (A) (A) (A) (A) (A) (A) (A) (A) (A)
                 (A) (A) (A) (A) (A) (A) (A) (A) (A) (A) (A) (A)
                 (A) (A) (A) (A) (A) (A) (A) (A) (A) (A) (A) (A)
                 (A) (A) (A) (A) (A) (A) (A) (A) (A) (A) (A) (A)
                 (A) (A) (A) (A) (A) (A) (A) (A) (A) (A) (A) (A)
                 (A) (A) (A) (A) (A) (A) (A) (A) (A) (A) (A) (A)
                 (A) (A) (A) (A) (A) (A) (A) (A) (A) (A) (A) (A)
                 (A) (A) (A) (A) (A) (A) (A) (A) (A) (A) (A) (A)
                 (A) (A) (A) (A) (A) (A) (A) (A) (A) (A) (A) (A)
                 (A) (A) (A) (A) (A) (A) (A) (A) (A) (A) (A) (A)
                 (A) (A) (A) (A) (A) (A) (A) (A) (A) (A) (A) (A)
                 (A) (A) (A) (A)
 The electronic state is 1-A.
 Alpha  occ. eigenvalues --  -19.65716 -19.65563 -19.63128 -14.72451 -10.61055
 Alpha  occ. eigenvalues --  -10.60109 -10.59963 -10.55262 -10.54485 -10.54124
 Alpha  occ. eigenvalues --  -10.53834 -10.53706 -10.53670 -10.53553 -10.53480
 Alpha  occ. eigenvalues --  -10.53459 -10.53442 -10.53369 -10.53067 -10.52777
 Alpha  occ. eigenvalues --  -10.51085  -1.19964  -1.17186  -1.16579  -1.00861
 Alpha  occ. eigenvalues --   -0.96817  -0.96221  -0.89454  -0.87370  -0.84359
 Alpha  occ. eigenvalues --   -0.84237  -0.82155  -0.80123  -0.75007  -0.72559
 Alpha  occ. eigenvalues --   -0.70340  -0.68919  -0.68595  -0.68128  -0.64434
 Alpha  occ. eigenvalues --   -0.62362  -0.60612  -0.59622  -0.58038  -0.56273
 Alpha  occ. eigenvalues --   -0.55856  -0.55250  -0.53057  -0.52259  -0.51939
 Alpha  occ. eigenvalues --   -0.51832  -0.51072  -0.49954  -0.48999  -0.48806
 Alpha  occ. eigenvalues --   -0.47911  -0.46922  -0.46288  -0.45974  -0.45672
 Alpha  occ. eigenvalues --   -0.44287  -0.43552  -0.43296  -0.42379  -0.41352
 Alpha  occ. eigenvalues --   -0.40872  -0.40225  -0.39581  -0.39162  -0.38692
 Alpha  occ. eigenvalues --   -0.37688  -0.35921  -0.31243  -0.30614  -0.29840
 Alpha  occ. eigenvalues --   -0.28345  -0.26680
 Alpha virt. eigenvalues --    0.01975   0.02305   0.02718   0.04186   0.07082
 Alpha virt. eigenvalues --    0.07581   0.08713   0.09042   0.09679   0.10289
 Alpha virt. eigenvalues --    0.10669   0.11647   0.12575   0.13088   0.13328
 Alpha virt. eigenvalues --    0.13649   0.14073   0.14669   0.14858   0.15737
 Alpha virt. eigenvalues --    0.16752   0.17300   0.17703   0.18131   0.18592
 Alpha virt. eigenvalues --    0.18675   0.19383   0.19786   0.20105   0.20776
 Alpha virt. eigenvalues --    0.21695   0.21931   0.22149   0.22547   0.22824
 Alpha virt. eigenvalues --    0.23397   0.24469   0.25235   0.25535   0.25758
 Alpha virt. eigenvalues --    0.26447   0.26989   0.27121   0.27439   0.27991
 Alpha virt. eigenvalues --    0.28878   0.29221   0.29909   0.29990   0.30705
 Alpha virt. eigenvalues --    0.30731   0.31780   0.32143   0.32391   0.32824
 Alpha virt. eigenvalues --    0.33475   0.33856   0.34425   0.34671   0.35178
 Alpha virt. eigenvalues --    0.35387   0.36033   0.36632   0.37372   0.37792
 Alpha virt. eigenvalues --    0.38214   0.38293   0.38706   0.38912   0.39328
 Alpha virt. eigenvalues --    0.40063   0.40684   0.41033   0.41368   0.41581
 Alpha virt. eigenvalues --    0.42141   0.42575   0.43025   0.43162   0.43873
 Alpha virt. eigenvalues --    0.44409   0.44537   0.44892   0.45385   0.45549
 Alpha virt. eigenvalues --    0.46519   0.46866   0.47347   0.47592   0.48124
 Alpha virt. eigenvalues --    0.48386   0.48875   0.49175   0.49665   0.49807
 Alpha virt. eigenvalues --    0.49971   0.50466   0.50809   0.51945   0.52060
 Alpha virt. eigenvalues --    0.52435   0.53166   0.53451   0.54205   0.54805
 Alpha virt. eigenvalues --    0.54986   0.55343   0.55646   0.56577   0.56992
 Alpha virt. eigenvalues --    0.57145   0.57512   0.57789   0.57988   0.59702
 Alpha virt. eigenvalues --    0.59949   0.60999   0.61485   0.61785   0.62507
 Alpha virt. eigenvalues --    0.62787   0.63746   0.63886   0.65276   0.66139
 Alpha virt. eigenvalues --    0.66623   0.66994   0.67756   0.68187   0.68430
 Alpha virt. eigenvalues --    0.69556   0.69947   0.70268   0.70670   0.71349
 Alpha virt. eigenvalues --    0.72544   0.73738   0.74328   0.75005   0.75554
 Alpha virt. eigenvalues --    0.75691   0.76691   0.76901   0.77866   0.78066
 Alpha virt. eigenvalues --    0.78387   0.79110   0.80191   0.80674   0.80859
 Alpha virt. eigenvalues --    0.81090   0.82127   0.83039   0.84013   0.84262
 Alpha virt. eigenvalues --    0.85271   0.85936   0.86285   0.87526   0.88160
 Alpha virt. eigenvalues --    0.88919   0.89601   0.90100   0.90459   0.90806
 Alpha virt. eigenvalues --    0.91844   0.92094   0.92604   0.92966   0.93337
 Alpha virt. eigenvalues --    0.94384   0.95458   0.96335   0.97918   0.98177
 Alpha virt. eigenvalues --    0.98909   1.00440   1.01059   1.02240   1.02800
 Alpha virt. eigenvalues --    1.03955   1.05030   1.06925   1.07542   1.07841
 Alpha virt. eigenvalues --    1.08916   1.09648   1.10297   1.10944   1.11586
 Alpha virt. eigenvalues --    1.12129   1.13959   1.14556   1.15335   1.15965
 Alpha virt. eigenvalues --    1.17228   1.17896   1.19374   1.19503   1.20415
 Alpha virt. eigenvalues --    1.21467   1.22127   1.23064   1.24317   1.24876
 Alpha virt. eigenvalues --    1.25936   1.26594   1.27504   1.28205   1.28999
 Alpha virt. eigenvalues --    1.29432   1.29860   1.30659   1.31324   1.31867
 Alpha virt. eigenvalues --    1.32077   1.33007   1.33932   1.34351   1.35941
 Alpha virt. eigenvalues --    1.36842   1.38356   1.38671   1.39506   1.39931
 Alpha virt. eigenvalues --    1.41141   1.42061   1.42924   1.43322   1.44984
 Alpha virt. eigenvalues --    1.45644   1.46499   1.47605   1.48429   1.48913
 Alpha virt. eigenvalues --    1.50324   1.50629   1.50990   1.51898   1.52960
 Alpha virt. eigenvalues --    1.53456   1.54107   1.55110   1.55274   1.56945
 Alpha virt. eigenvalues --    1.57241   1.57612   1.58886   1.59332   1.60670
 Alpha virt. eigenvalues --    1.60812   1.61372   1.61891   1.63211   1.63467
 Alpha virt. eigenvalues --    1.64224   1.64747   1.65419   1.66889   1.67157
 Alpha virt. eigenvalues --    1.68365   1.68573   1.69571   1.70406   1.71341
 Alpha virt. eigenvalues --    1.71791   1.72186   1.73244   1.73652   1.74036
 Alpha virt. eigenvalues --    1.74573   1.75154   1.75672   1.75986   1.76159
 Alpha virt. eigenvalues --    1.76895   1.76979   1.79221   1.79366   1.80426
 Alpha virt. eigenvalues --    1.80740   1.81307   1.83020   1.85069   1.85459
 Alpha virt. eigenvalues --    1.86342   1.87004   1.87852   1.88624   1.90244
 Alpha virt. eigenvalues --    1.90937   1.91554   1.92230   1.93358   1.94425
 Alpha virt. eigenvalues --    1.95011   1.95309   1.96422   1.97017   1.98089
 Alpha virt. eigenvalues --    1.99134   1.99472   2.00047   2.01231   2.02416
 Alpha virt. eigenvalues --    2.02626   2.03577   2.04796   2.06193   2.06654
 Alpha virt. eigenvalues --    2.07460   2.08280   2.10035   2.10381   2.11428
 Alpha virt. eigenvalues --    2.11758   2.13148   2.14924   2.15704   2.16326
 Alpha virt. eigenvalues --    2.16808   2.17490   2.19055   2.19662   2.20206
 Alpha virt. eigenvalues --    2.21055   2.22439   2.22954   2.23278   2.23822
 Alpha virt. eigenvalues --    2.24148   2.24580   2.25875   2.26609   2.27676
 Alpha virt. eigenvalues --    2.28429   2.29065   2.29834   2.31633   2.32226
 Alpha virt. eigenvalues --    2.33701   2.35145   2.35922   2.36224   2.37405
 Alpha virt. eigenvalues --    2.38703   2.39403   2.41119   2.42219   2.42960
 Alpha virt. eigenvalues --    2.43275   2.44001   2.44917   2.46777   2.47243
 Alpha virt. eigenvalues --    2.47956   2.48118   2.49106   2.50416   2.50771
 Alpha virt. eigenvalues --    2.52068   2.52115   2.53045   2.53470   2.54980
 Alpha virt. eigenvalues --    2.55858   2.56928   2.57889   2.59069   2.60068
 Alpha virt. eigenvalues --    2.60660   2.60999   2.61769   2.62060   2.63287
 Alpha virt. eigenvalues --    2.63693   2.64127   2.65408   2.65531   2.66376
 Alpha virt. eigenvalues --    2.66890   2.67447   2.67925   2.69092   2.69743
 Alpha virt. eigenvalues --    2.70113   2.70755   2.71105   2.71531   2.71782
 Alpha virt. eigenvalues --    2.72790   2.72945   2.74230   2.74539   2.74844
 Alpha virt. eigenvalues --    2.75305   2.76200   2.76746   2.77176   2.77912
 Alpha virt. eigenvalues --    2.78745   2.79355   2.79458   2.80160   2.80913
 Alpha virt. eigenvalues --    2.81276   2.82437   2.83608   2.84491   2.85021
 Alpha virt. eigenvalues --    2.86448   2.86850   2.87471   2.87625   2.88696
 Alpha virt. eigenvalues --    2.88925   2.89324   2.89685   2.91167   2.91300
 Alpha virt. eigenvalues --    2.92286   2.92771   2.93477   2.93563   2.94402
 Alpha virt. eigenvalues --    2.95374   2.96609   2.97287   2.99633   3.00667
 Alpha virt. eigenvalues --    3.01451   3.02109   3.02889   3.03364   3.03990
 Alpha virt. eigenvalues --    3.05015   3.05841   3.06486   3.06890   3.07411
 Alpha virt. eigenvalues --    3.08246   3.08696   3.10627   3.11084   3.11441
 Alpha virt. eigenvalues --    3.11832   3.13611   3.14773   3.15754   3.16133
 Alpha virt. eigenvalues --    3.16914   3.17214   3.18119   3.18310   3.19367
 Alpha virt. eigenvalues --    3.19721   3.20395   3.20557   3.21698   3.22454
 Alpha virt. eigenvalues --    3.22969   3.23544   3.24225   3.24682   3.25177
 Alpha virt. eigenvalues --    3.25430   3.26318   3.27406   3.27699   3.28776
 Alpha virt. eigenvalues --    3.29495   3.30147   3.30694   3.31646   3.32017
 Alpha virt. eigenvalues --    3.32512   3.32823   3.33384   3.34232   3.34648
 Alpha virt. eigenvalues --    3.36255   3.36612   3.37098   3.38144   3.38405
 Alpha virt. eigenvalues --    3.39606   3.39778   3.40167   3.40726   3.42061
 Alpha virt. eigenvalues --    3.42304   3.42924   3.43589   3.44139   3.45206
 Alpha virt. eigenvalues --    3.46131   3.46223   3.46759   3.47474   3.47799
 Alpha virt. eigenvalues --    3.48471   3.49505   3.50086   3.50423   3.51955
 Alpha virt. eigenvalues --    3.52780   3.53927   3.54193   3.54531   3.55488
 Alpha virt. eigenvalues --    3.55722   3.56643   3.57010   3.57399   3.59634
 Alpha virt. eigenvalues --    3.60156   3.61162   3.61786   3.63103   3.66313
 Alpha virt. eigenvalues --    3.66495   3.66804   3.67901   3.68929   3.70201
 Alpha virt. eigenvalues --    3.71624   3.72447   3.72602   3.73839   3.74387
 Alpha virt. eigenvalues --    3.75695   3.76834   3.77925   3.79452   3.81468
 Alpha virt. eigenvalues --    3.82412   3.83385   3.83763   3.87009   3.87172
 Alpha virt. eigenvalues --    3.89801   3.91491   3.92439   3.93133   3.95291
 Alpha virt. eigenvalues --    3.95953   3.96733   3.97471   3.98576   3.99961
 Alpha virt. eigenvalues --    4.00469   4.03287   4.04463   4.04673   4.05847
 Alpha virt. eigenvalues --    4.06797   4.07460   4.08761   4.09279   4.11417
 Alpha virt. eigenvalues --    4.12657   4.13278   4.13824   4.14891   4.15555
 Alpha virt. eigenvalues --    4.16728   4.17552   4.18586   4.19067   4.19651
 Alpha virt. eigenvalues --    4.20246   4.21450   4.21965   4.23229   4.23687
 Alpha virt. eigenvalues --    4.24798   4.25114   4.27990   4.30274   4.30874
 Alpha virt. eigenvalues --    4.32319   4.32537   4.34392   4.35590   4.37003
 Alpha virt. eigenvalues --    4.38106   4.40464   4.41107   4.44931   4.45668
 Alpha virt. eigenvalues --    4.46909   4.48314   4.51388   4.52506   4.54673
 Alpha virt. eigenvalues --    4.54837   4.57735   4.58698   4.62651   4.64373
 Alpha virt. eigenvalues --    4.65975   4.66398   4.66581   4.68336   4.69537
 Alpha virt. eigenvalues --    4.71518   4.73044   4.76488   4.77139   4.81733
 Alpha virt. eigenvalues --    4.82552   4.84653   4.86105   4.86848   4.88717
 Alpha virt. eigenvalues --    4.88958   4.91138   4.91695   4.95914   4.97371
 Alpha virt. eigenvalues --    5.01344   5.04908   5.07383   5.09162   5.10246
 Alpha virt. eigenvalues --    5.14271   5.15113   5.20918   5.21175   5.24220
 Alpha virt. eigenvalues --    5.24347   5.27161   5.29538   5.29986   5.31375
 Alpha virt. eigenvalues --    5.32535   5.35703   5.36374   5.38374   5.41818
 Alpha virt. eigenvalues --    5.43797   5.44580   5.45329   5.47863   5.51895
 Alpha virt. eigenvalues --    5.52369   5.53336   5.59878   5.61103   5.63321
 Alpha virt. eigenvalues --    5.67023   5.68020   5.81384   5.85011   5.85772
 Alpha virt. eigenvalues --    5.87833   5.89533   5.98337   6.02618   6.16345
 Alpha virt. eigenvalues --    6.29460   6.33610   6.38745   6.40014   6.43612
 Alpha virt. eigenvalues --    6.51891   6.52766   6.65533   6.75116   6.75946
 Alpha virt. eigenvalues --    6.77653   6.80603   6.81930   6.96514   6.99246
 Alpha virt. eigenvalues --    7.02185   7.20481   7.20772   7.34001  22.22339
 Alpha virt. eigenvalues --   22.30797  22.57737  22.63955  22.70359  22.71483
 Alpha virt. eigenvalues --   22.76094  22.78686  22.87254  22.88784  22.90674
 Alpha virt. eigenvalues --   22.91792  22.96940  22.99754  23.13277  23.37062
 Alpha virt. eigenvalues --   23.53843  32.62382  43.99241  44.20994  44.21121
          Condensed to atoms (all electrons):
               1          2          3          4          5          6
     1  C    5.295794   0.282576   0.010662  -0.086173   0.058907   0.348699
     2  C    0.282576   5.367619   0.399460  -0.052383  -0.089408   0.046926
     3  C    0.010662   0.399460   5.081978   0.434034  -0.003946  -0.108059
     4  C   -0.086173  -0.052383   0.434034   5.200799   0.465617   0.024447
     5  C    0.058907  -0.089408  -0.003946   0.465617   4.829661   0.316535
     6  C    0.348699   0.046926  -0.108059   0.024447   0.316535   5.095562
     7  O    0.014465  -0.003001   0.000307  -0.053769   0.336770  -0.114032
     8  O   -0.085043   0.010218   0.000485  -0.001253  -0.055203   0.276064
     9  C    0.008593  -0.083929   0.226049  -0.061188   0.011267  -0.005322
    10  C    0.002403  -0.019357  -0.014968  -0.008933   0.001101   0.000031
    11  N   -0.000026   0.001448   0.008642  -0.000056  -0.000016  -0.000005
    12  H    0.403008  -0.021335   0.003167   0.001024   0.001180  -0.018914
    13  H   -0.022647   0.412244  -0.039499   0.007788  -0.001481   0.002797
    14  H   -0.007601   0.014126  -0.040829   0.415093  -0.053018   0.021309
    15  H    0.005381  -0.001495   0.000977   0.002951  -0.017621  -0.033173
    16  H   -0.003856   0.004190  -0.000498   0.000035   0.003572  -0.031482
    17  H   -0.000437  -0.001911  -0.045535   0.004100  -0.000326   0.000232
    18  H   -0.000546   0.004711  -0.037587  -0.004367  -0.000460   0.000098
    19  H    0.000102  -0.012690   0.009493   0.007446  -0.000487  -0.000133
    20  H   -0.000598   0.009812   0.018603  -0.010392   0.000209   0.000051
    21  H    0.000005  -0.000369   0.000212   0.000490  -0.000016   0.000000
    22  C   -0.000013   0.000432  -0.000360  -0.000201  -0.000015  -0.000000
    23  H   -0.000003   0.000099   0.000320  -0.000117  -0.000003   0.000001
    24  O    0.000000   0.000001   0.000000  -0.000000   0.000000  -0.000000
    25  H   -0.000000  -0.000000  -0.000004   0.000000   0.000000   0.000000
    26  C    0.000004  -0.000328  -0.000503   0.000111  -0.000000  -0.000000
    27  H    0.000001   0.000121   0.000148  -0.000006  -0.000002  -0.000000
    28  C   -0.000000  -0.000030  -0.000046  -0.000002   0.000000   0.000000
    29  H    0.000000   0.000001   0.000001  -0.000000  -0.000000   0.000000
    30  H   -0.000002   0.000114  -0.000000  -0.000010   0.000000   0.000000
    31  H    0.000000   0.000001   0.000004  -0.000000  -0.000000   0.000000
    32  C   -0.000001   0.000034   0.000026  -0.000007   0.000000   0.000000
    33  C    0.000000  -0.000003   0.000000  -0.000000   0.000000   0.000000
    34  C   -0.000000   0.000000   0.000000  -0.000000  -0.000000   0.000000
    35  C    0.000000   0.000000  -0.000000  -0.000000   0.000000   0.000000
    36  H   -0.000000   0.000002   0.000005   0.000000  -0.000000  -0.000000
    37  C   -0.000000  -0.000000  -0.000000   0.000000  -0.000000   0.000000
    38  H    0.000000  -0.000000   0.000000   0.000000   0.000000  -0.000000
    39  C   -0.000000   0.000000   0.000000   0.000000   0.000000  -0.000000
    40  H    0.000000   0.000000  -0.000000  -0.000000  -0.000000  -0.000000
    41  H   -0.000000   0.000000   0.000000  -0.000000  -0.000000   0.000000
    42  H   -0.000000   0.000000   0.000000  -0.000000   0.000000   0.000000
               7          8          9         10         11         12
     1  C    0.014465  -0.085043   0.008593   0.002403  -0.000026   0.403008
     2  C   -0.003001   0.010218  -0.083929  -0.019357   0.001448  -0.021335
     3  C    0.000307   0.000485   0.226049  -0.014968   0.008642   0.003167
     4  C   -0.053769  -0.001253  -0.061188  -0.008933  -0.000056   0.001024
     5  C    0.336770  -0.055203   0.011267   0.001101  -0.000016   0.001180
     6  C   -0.114032   0.276064  -0.005322   0.000031  -0.000005  -0.018914
     7  O    7.997613  -0.003183  -0.000284   0.000059   0.000000  -0.000009
     8  O   -0.003183   8.064857  -0.000003   0.000002   0.000000  -0.002983
     9  C   -0.000284  -0.000003   5.358519   0.185611  -0.034028  -0.000108
    10  C    0.000059   0.000002   0.185611   5.196871   0.198251   0.000010
    11  N    0.000000   0.000000  -0.034028   0.198251   6.958369  -0.000001
    12  H   -0.000009  -0.002983  -0.000108   0.000010  -0.000001   0.441346
    13  H    0.000014  -0.000143   0.000686  -0.002185   0.000150  -0.002504
    14  H    0.006699  -0.000134  -0.001517  -0.002055  -0.000099   0.000021
    15  H    0.317749   0.013316   0.000043  -0.000003   0.000000   0.000015
    16  H   -0.000354   0.317773  -0.000001  -0.000000  -0.000000   0.002201
    17  H    0.000004  -0.000001   0.444928  -0.060685   0.010099  -0.000041
    18  H   -0.000022  -0.000000   0.435838  -0.049391  -0.001378   0.000010
    19  H    0.000001   0.000001  -0.048103   0.433936  -0.044930   0.000027
    20  H   -0.000001   0.000001  -0.054325   0.417589  -0.055467  -0.000004
    21  H   -0.000000   0.000000  -0.007591  -0.031536   0.351717   0.000000
    22  C    0.000000   0.000000   0.003947  -0.056017   0.221351  -0.000000
    23  H    0.000000  -0.000000   0.000549  -0.017508  -0.063301  -0.000000
    24  O   -0.000000   0.000000  -0.000460   0.006547  -0.065809  -0.000000
    25  H    0.000000  -0.000000   0.000047  -0.000555   0.008918   0.000000
    26  C   -0.000000  -0.000000   0.002060   0.017059  -0.089552   0.000000
    27  H    0.000000   0.000000   0.000333   0.000451  -0.001446  -0.000000
    28  C   -0.000000  -0.000000  -0.000511   0.002240  -0.025196  -0.000000
    29  H    0.000000   0.000000  -0.000008  -0.000270   0.001555   0.000000
    30  H    0.000000  -0.000000   0.000129  -0.002145   0.016997  -0.000000
    31  H    0.000000  -0.000000   0.000003   0.000275   0.001919  -0.000000
    32  C    0.000000   0.000000   0.000018  -0.003038   0.022816  -0.000000
    33  C   -0.000000  -0.000000  -0.000009   0.000030   0.000045   0.000000
    34  C   -0.000000  -0.000000   0.000007   0.000227  -0.001148  -0.000000
    35  C    0.000000   0.000000   0.000000  -0.000057  -0.000075  -0.000000
    36  H    0.000000   0.000000  -0.000001   0.000071  -0.000039  -0.000000
    37  C    0.000000   0.000000  -0.000000   0.000007  -0.000154  -0.000000
    38  H   -0.000000   0.000000  -0.000000   0.000014   0.000047   0.000000
    39  C   -0.000000  -0.000000  -0.000000   0.000003   0.000020   0.000000
    40  H    0.000000   0.000000  -0.000000  -0.000000  -0.000001  -0.000000
    41  H    0.000000   0.000000   0.000000  -0.000000  -0.000001  -0.000000
    42  H   -0.000000  -0.000000  -0.000000  -0.000000  -0.000000  -0.000000
              13         14         15         16         17         18
     1  C   -0.022647  -0.007601   0.005381  -0.003856  -0.000437  -0.000546
     2  C    0.412244   0.014126  -0.001495   0.004190  -0.001911   0.004711
     3  C   -0.039499  -0.040829   0.000977  -0.000498  -0.045535  -0.037587
     4  C    0.007788   0.415093   0.002951   0.000035   0.004100  -0.004367
     5  C   -0.001481  -0.053018  -0.017621   0.003572  -0.000326  -0.000460
     6  C    0.002797   0.021309  -0.033173  -0.031482   0.000232   0.000098
     7  O    0.000014   0.006699   0.317749  -0.000354   0.000004  -0.000022
     8  O   -0.000143  -0.000134   0.013316   0.317773  -0.000001  -0.000000
     9  C    0.000686  -0.001517   0.000043  -0.000001   0.444928   0.435838
    10  C   -0.002185  -0.002055  -0.000003  -0.000000  -0.060685  -0.049391
    11  N    0.000150  -0.000099   0.000000  -0.000000   0.010099  -0.001378
    12  H   -0.002504   0.000021   0.000015   0.002201  -0.000041   0.000010
    13  H    0.454088  -0.000075  -0.000003  -0.000022   0.000425   0.000287
    14  H   -0.000075   0.460638  -0.000833   0.000033   0.000328   0.000616
    15  H   -0.000003  -0.000833   0.327921  -0.000865  -0.000001   0.000001
    16  H   -0.000022   0.000033  -0.000865   0.317243  -0.000000   0.000000
    17  H    0.000425   0.000328  -0.000001  -0.000000   0.480998  -0.014593
    18  H    0.000287   0.000616   0.000001   0.000000  -0.014593   0.480794
    19  H    0.000178   0.000094  -0.000000   0.000000  -0.002359   0.004473
    20  H    0.000161   0.000897   0.000001  -0.000000   0.006305  -0.002858
    21  H   -0.000004   0.000018  -0.000000   0.000000  -0.000425   0.002636
    22  C    0.000022   0.000012  -0.000000  -0.000000   0.001541  -0.000306
    23  H    0.000004   0.000009   0.000000  -0.000000   0.000199  -0.000148
    24  O   -0.000000  -0.000000   0.000000  -0.000000   0.000024  -0.000033
    25  H   -0.000000   0.000000  -0.000000   0.000000  -0.000004   0.000000
    26  C   -0.000022  -0.000003  -0.000000   0.000000  -0.000914   0.000013
    27  H    0.000015   0.000000  -0.000000  -0.000000   0.000164  -0.000022
    28  C    0.000001  -0.000000   0.000000   0.000000  -0.000588   0.000042
    29  H    0.000000   0.000000   0.000000  -0.000000   0.000016  -0.000000
    30  H    0.000060   0.000000   0.000000  -0.000000   0.000847  -0.000005
    31  H   -0.000000   0.000000  -0.000000  -0.000000   0.000077  -0.000015
    32  C    0.000005   0.000000   0.000000  -0.000000   0.000057   0.000011
    33  C   -0.000000   0.000000   0.000000   0.000000   0.000004  -0.000000
    34  C    0.000000   0.000000   0.000000  -0.000000   0.000001  -0.000001
    35  C   -0.000000  -0.000000   0.000000  -0.000000  -0.000000  -0.000000
    36  H    0.000000   0.000000   0.000000  -0.000000   0.000001   0.000000
    37  C   -0.000000   0.000000  -0.000000   0.000000   0.000000  -0.000000
    38  H    0.000000  -0.000000   0.000000   0.000000  -0.000000   0.000000
    39  C    0.000000   0.000000   0.000000   0.000000   0.000000   0.000000
    40  H   -0.000000  -0.000000   0.000000  -0.000000  -0.000000  -0.000000
    41  H    0.000000   0.000000  -0.000000  -0.000000   0.000000  -0.000000
    42  H    0.000000   0.000000   0.000000   0.000000   0.000000   0.000000
              19         20         21         22         23         24
     1  C    0.000102  -0.000598   0.000005  -0.000013  -0.000003   0.000000
     2  C   -0.012690   0.009812  -0.000369   0.000432   0.000099   0.000001
     3  C    0.009493   0.018603   0.000212  -0.000360   0.000320   0.000000
     4  C    0.007446  -0.010392   0.000490  -0.000201  -0.000117  -0.000000
     5  C   -0.000487   0.000209  -0.000016  -0.000015  -0.000003   0.000000
     6  C   -0.000133   0.000051   0.000000  -0.000000   0.000001  -0.000000
     7  O    0.000001  -0.000001  -0.000000   0.000000   0.000000  -0.000000
     8  O    0.000001   0.000001   0.000000   0.000000  -0.000000   0.000000
     9  C   -0.048103  -0.054325  -0.007591   0.003947   0.000549  -0.000460
    10  C    0.433936   0.417589  -0.031536  -0.056017  -0.017508   0.006547
    11  N   -0.044930  -0.055467   0.351717   0.221351  -0.063301  -0.065809
    12  H    0.000027  -0.000004   0.000000  -0.000000  -0.000000  -0.000000
    13  H    0.000178   0.000161  -0.000004   0.000022   0.000004  -0.000000
    14  H    0.000094   0.000897   0.000018   0.000012   0.000009  -0.000000
    15  H   -0.000000   0.000001  -0.000000  -0.000000   0.000000   0.000000
    16  H    0.000000  -0.000000   0.000000  -0.000000  -0.000000  -0.000000
    17  H   -0.002359   0.006305  -0.000425   0.001541   0.000199   0.000024
    18  H    0.004473  -0.002858   0.002636  -0.000306  -0.000148  -0.000033
    19  H    0.521646  -0.041951   0.007756  -0.008810  -0.006161  -0.000081
    20  H   -0.041951   0.557031  -0.006244   0.011015   0.012513  -0.000003
    21  H    0.007756  -0.006244   0.457375  -0.026783  -0.001139  -0.000078
    22  C   -0.008810   0.011015  -0.026783   5.143093   0.556369   0.233478
    23  H   -0.006161   0.012513  -0.001139   0.556369   0.517401  -0.036620
    24  O   -0.000081  -0.000003  -0.000078   0.233478  -0.036620   8.143867
    25  H    0.000019  -0.000112  -0.000038  -0.044774  -0.002145   0.313357
    26  C    0.011689  -0.012005   0.011588  -0.018357  -0.143598  -0.023588
    27  H   -0.003204   0.000871  -0.000578  -0.035674   0.005706   0.004501
    28  C    0.000526  -0.000293  -0.000605  -0.025959   0.002025  -0.035649
    29  H   -0.000053   0.000022   0.000007   0.011480  -0.000016   0.000789
    30  H   -0.001197   0.000384  -0.000870  -0.003924   0.000603   0.000348
    31  H   -0.000227   0.000077  -0.000570  -0.005709   0.001444   0.016770
    32  C   -0.001811   0.001181  -0.001736   0.007069  -0.001183  -0.023691
    33  C    0.000290   0.000214   0.000039   0.003994  -0.002006  -0.000451
    34  C   -0.000088   0.000018  -0.000195  -0.019076   0.006762   0.015336
    35  C   -0.000039   0.000009  -0.000001   0.003909   0.001379   0.000044
    36  H    0.000115   0.000070   0.000002  -0.002918   0.000772   0.000080
    37  C   -0.000003   0.000001   0.000011   0.002376   0.000622   0.000255
    38  H    0.000003  -0.000002   0.000002  -0.001986  -0.000249  -0.001934
    39  C    0.000002  -0.000000  -0.000000  -0.001038  -0.000287   0.000159
    40  H   -0.000000   0.000000   0.000000   0.000041   0.000011   0.000001
    41  H   -0.000000   0.000000   0.000000   0.000073   0.000006  -0.000021
    42  H   -0.000000   0.000000  -0.000000   0.000007   0.000000  -0.000001
              25         26         27         28         29         30
     1  C   -0.000000   0.000004   0.000001  -0.000000   0.000000  -0.000002
[...]
    31  H    0.000000   0.000000   0.000000  -0.000000   0.000004   0.000005
    32  C    0.000001   0.000001  -0.000000   0.000000   0.000020   0.000021
    33  C   -0.000000  -0.000000   0.000000  -0.000000   0.000006  -0.000004
    34  C    0.000000   0.000000   0.000000   0.000000   0.000000   0.000001
    35  C    0.000000  -0.000000   0.000000  -0.000000  -0.000000   0.000000
    36  H    0.000000   0.000001  -0.000000   0.000000   0.000001  -0.000000
    37  C   -0.000000  -0.000000  -0.000000  -0.000000  -0.000000   0.000000
    38  H    0.000000   0.000000   0.000000   0.000000   0.000000   0.000000
    39  C    0.000000   0.000000  -0.000000   0.000000   0.000000  -0.000000
    40  H   -0.000000  -0.000000  -0.000000   0.000000  -0.000000   0.000000
    41  H   -0.000000   0.000000  -0.000000  -0.000000  -0.000000  -0.000000
    42  H    0.000000   0.000000   0.000000   0.000000   0.000000  -0.000000
              19         20         21         22         23         24
     1  C    0.000259  -0.000491   0.000001   0.000003  -0.000000  -0.000000
     2  C   -0.008653   0.007736  -0.000233   0.000425   0.000007  -0.000000
     3  C    0.002710   0.018300  -0.000814   0.001399   0.000509  -0.000054
     4  C    0.006148  -0.009305   0.000468  -0.000373  -0.000018   0.000001
     5  C   -0.000799   0.000953  -0.000031   0.000013   0.000001   0.000000
     6  C   -0.000102   0.000060   0.000002  -0.000004   0.000000   0.000000
     7  O    0.000000   0.000010  -0.000000   0.000000  -0.000000  -0.000000
     8  O    0.000001   0.000001   0.000000   0.000000  -0.000000   0.000000
     9  C   -0.035407  -0.058709  -0.004454   0.001892  -0.000345  -0.000160
    10  C    0.426272   0.439226  -0.038491  -0.031989  -0.004508   0.005087
    11  N   -0.043838  -0.060611   0.366680   0.252474  -0.062795  -0.074226
    12  H    0.000010  -0.000001  -0.000000   0.000000   0.000000  -0.000000
    13  H    0.000444   0.000035   0.000003  -0.000001   0.000000  -0.000000
    14  H    0.000119   0.000548   0.000033   0.000037   0.000027  -0.000001
    15  H   -0.000000   0.000001  -0.000000   0.000000   0.000000  -0.000000
    16  H    0.000000  -0.000000   0.000000  -0.000000   0.000000  -0.000000
    17  H   -0.005601   0.005978  -0.000913   0.001309   0.000162  -0.000052
    18  H    0.005058  -0.002079   0.003197   0.000272   0.000041  -0.000049
    19  H    0.524828  -0.043189   0.007121  -0.026812  -0.001319   0.000428
    20  H   -0.043189   0.528564  -0.004485   0.029845   0.007232  -0.000834
    21  H    0.007121  -0.004485   0.464755  -0.061969  -0.007811   0.007424
    22  C   -0.026812   0.029845  -0.061969   5.346890   0.583566   0.199839
    23  H   -0.001319   0.007232  -0.007811   0.583566   0.504069  -0.054101
    24  O    0.000428  -0.000834   0.007424   0.199839  -0.054101   8.164760
    25  H   -0.000019  -0.000023  -0.000047  -0.038436  -0.006796   0.313914
    26  C    0.029510  -0.028703   0.026203  -0.181690  -0.146471  -0.020142
    27  H   -0.003470  -0.002836  -0.001183  -0.053208   0.001863   0.004882
    28  C   -0.009232   0.002266  -0.002428   0.004378   0.004989  -0.025361
    29  H   -0.000403   0.000073   0.000016   0.012903  -0.000030   0.000194
    30  H   -0.003415   0.000973   0.000084  -0.008534   0.000014  -0.000677
    31  H    0.000249  -0.000021  -0.000426  -0.004987   0.000865   0.012979
    32  C    0.002312  -0.001388  -0.000201  -0.076965  -0.022231  -0.001282
    33  C   -0.000588   0.001294  -0.000125   0.039008   0.006592  -0.002747
    34  C    0.000024   0.000025  -0.000392  -0.002540   0.009346   0.024071
    35  C    0.000023  -0.000043   0.000014  -0.000734  -0.000350   0.000024
    36  H   -0.000076   0.000572  -0.000018  -0.000612   0.001645   0.000030
    37  C    0.000008  -0.000005   0.000011   0.000270  -0.000156  -0.000333
    38  H   -0.000005   0.000001  -0.000007  -0.002166  -0.000016   0.000740
    39  C   -0.000005   0.000009  -0.000004   0.001024   0.000282   0.000238
    40  H    0.000000  -0.000002   0.000000  -0.000050  -0.000016   0.000003
    41  H    0.000000  -0.000000   0.000000   0.000016  -0.000001  -0.000053
    42  H   -0.000000   0.000000  -0.000000   0.000015   0.000002  -0.000000
              25         26         27         28         29         30
     1  C   -0.000000  -0.000013  -0.000004   0.000009  -0.000000  -0.000001
     2  C    0.000000  -0.000333   0.000005   0.000024   0.000003   0.000224
     3  C   -0.000003  -0.001496   0.000355   0.000073   0.000001  -0.000031
     4  C   -0.000000   0.000278   0.000032  -0.000033  -0.000000  -0.000008
     5  C    0.000000  -0.000018  -0.000002   0.000002   0.000000  -0.000000
     6  C    0.000000   0.000003  -0.000000   0.000000   0.000000   0.000000
     7  O    0.000000  -0.000000  -0.000000  -0.000000   0.000000   0.000000
     8  O   -0.000000   0.000000  -0.000000  -0.000000   0.000000   0.000000
     9  C    0.000048   0.005497   0.001142  -0.001105  -0.000010  -0.000493
    10  C   -0.000841   0.010790  -0.002474  -0.003885  -0.000194  -0.002559
    11  N    0.008908  -0.088709   0.000542   0.015627   0.000767   0.005247
    12  H    0.000000  -0.000000   0.000000   0.000000   0.000000  -0.000000
    13  H    0.000000   0.000001   0.000001   0.000000   0.000000   0.000044
    14  H    0.000000  -0.000011   0.000002  -0.000000   0.000000   0.000000
    15  H   -0.000000  -0.000000   0.000000   0.000000   0.000000  -0.000000
    16  H    0.000000   0.000000  -0.000000   0.000000   0.000000   0.000000
    17  H   -0.000002  -0.001170  -0.000073   0.000157   0.000011   0.000577
    18  H   -0.000001   0.000009   0.000030  -0.000071  -0.000001  -0.000028
    19  H   -0.000019   0.029510  -0.003470  -0.009232  -0.000403  -0.003415
    20  H   -0.000023  -0.028703  -0.002836   0.002266   0.000073   0.000973
    21  H   -0.000047   0.026203  -0.001183  -0.002428   0.000016   0.000084
    22  C   -0.038436  -0.181690  -0.053208   0.004378   0.012903  -0.008534
    23  H   -0.006796  -0.146471   0.001863   0.004989  -0.000030   0.000014
    24  O    0.313914  -0.020142   0.004882  -0.025361   0.000194  -0.000677
    25  H    0.338535  -0.004490  -0.000113   0.001001  -0.000015  -0.000011
    26  C   -0.004490   6.109178   0.456023   0.162194  -0.088186  -0.053516
    27  H   -0.000113   0.456023   0.499013  -0.035002  -0.004373  -0.007057
    28  C    0.001001   0.162194  -0.035002   5.197258   0.445168   0.421740
    29  H   -0.000015  -0.088186  -0.004373   0.445168   0.487725  -0.017532
    30  H   -0.000011  -0.053516  -0.007057   0.421740  -0.017532   0.499962
    31  H   -0.000589   0.003755   0.007161   0.393955  -0.026968  -0.025703
    32  C    0.017826   0.063994  -0.056984  -0.029288   0.021556   0.020501
    33  C   -0.001570  -0.096818  -0.014878   0.010484   0.005033  -0.000572
    34  C   -0.006974  -0.048942   0.013232  -0.031662  -0.013559   0.000272
    35  C    0.000284   0.005747  -0.000027  -0.000605  -0.000363   0.000008
    36  H   -0.000041   0.005522  -0.000529   0.000776   0.000079  -0.000002
    37  C    0.000543   0.008955  -0.000395   0.000517  -0.001246  -0.000015
    38  H    0.000086   0.005422   0.000088  -0.006695  -0.001229   0.000494
    39  C   -0.000410  -0.001420   0.000172  -0.000295   0.000129  -0.000000
    40  H    0.000005  -0.000267  -0.000064   0.000013  -0.000000  -0.000000
    41  H    0.000015  -0.000311  -0.000001   0.000123   0.000025  -0.000001
    42  H   -0.000005   0.000011  -0.000001  -0.000004   0.000002   0.000000
              31         32         33         34         35         36
     1  C   -0.000000  -0.000000   0.000000   0.000000   0.000000  -0.000000
     2  C   -0.000002   0.000002   0.000001  -0.000000  -0.000000   0.000001
     3  C    0.000017   0.000042   0.000007   0.000004  -0.000000   0.000015
     4  C    0.000000   0.000020  -0.000007   0.000000  -0.000000   0.000004
     5  C   -0.000000  -0.000000   0.000000  -0.000000  -0.000000  -0.000000
     6  C   -0.000000  -0.000000  -0.000000   0.000000  -0.000000   0.000000
     7  O    0.000000   0.000000   0.000000  -0.000000   0.000000  -0.000000
     8  O    0.000000   0.000000   0.000000  -0.000000   0.000000   0.000000
     9  C    0.000055  -0.000459  -0.000028  -0.000005   0.000001  -0.000022
    10  C    0.000803  -0.003638   0.000749   0.000368  -0.000013   0.000136
    11  N   -0.001452   0.020099  -0.001847  -0.000999   0.000003  -0.000274
    12  H    0.000000   0.000000  -0.000000   0.000000  -0.000000   0.000000
    13  H    0.000000   0.000001  -0.000000   0.000000   0.000000   0.000000
    14  H    0.000000   0.000001  -0.000000   0.000000  -0.000000   0.000001
    15  H    0.000000  -0.000000   0.000000   0.000000   0.000000  -0.000000
    16  H   -0.000000   0.000000  -0.000000   0.000000  -0.000000   0.000000
    17  H    0.000004   0.000020   0.000006   0.000000  -0.000000   0.000001
    18  H    0.000005   0.000021  -0.000004   0.000001   0.000000  -0.000000
    19  H    0.000249   0.002312  -0.000588   0.000024   0.000023  -0.000076
    20  H   -0.000021  -0.001388   0.001294   0.000025  -0.000043   0.000572
    21  H   -0.000426  -0.000201  -0.000125  -0.000392   0.000014  -0.000018
    22  C   -0.004987  -0.076965   0.039008  -0.002540  -0.000734  -0.000612
    23  H    0.000865  -0.022231   0.006592   0.009346  -0.000350   0.001645
    24  O    0.012979  -0.001282  -0.002747   0.024071   0.000024   0.000030
    25  H   -0.000589   0.017826  -0.001570  -0.006974   0.000284  -0.000041
    26  C    0.003755   0.063994  -0.096818  -0.048942   0.005747   0.005522
    27  H    0.007161  -0.056984  -0.014878   0.013232  -0.000027  -0.000529
    28  C    0.393955  -0.029288   0.010484  -0.031662  -0.000605   0.000776
    29  H   -0.026968   0.021556   0.005033  -0.013559  -0.000363   0.000079
    30  H   -0.025703   0.020501  -0.000572   0.000272   0.000008  -0.000002
    31  H    0.511475  -0.048182  -0.001524   0.016262  -0.000058  -0.000021
    32  C   -0.048182   5.553767   0.397011   0.294920  -0.031610  -0.052301
    33  C   -0.001524   0.397011   5.147918  -0.026355   0.477135   0.424000
    34  C    0.016262   0.294920  -0.026355   5.250607  -0.053355   0.006916
    35  C   -0.000058  -0.031610   0.477135  -0.053355   4.992849  -0.030096
    36  H   -0.000021  -0.052301   0.424000   0.006916  -0.030096   0.453791
    37  C    0.001409  -0.061557  -0.046928   0.491594  -0.052397  -0.002018
    38  H   -0.002639  -0.045100   0.001950   0.413165  -0.000280  -0.000122
    39  C    0.000096  -0.066475  -0.038710  -0.039423   0.480911   0.005357
    40  H   -0.000001   0.008136  -0.039760  -0.001981   0.425552  -0.003585
    41  H   -0.000038   0.007855  -0.000882  -0.036526   0.004631   0.000043
    42  H    0.000000  -0.001300   0.005122   0.005977  -0.035381  -0.000145
              37         38         39         40         41         42
     1  C    0.000000  -0.000000  -0.000000   0.000000  -0.000000  -0.000000
     2  C   -0.000000  -0.000000   0.000000  -0.000000   0.000000   0.000000
     3  C   -0.000000   0.000000   0.000000  -0.000000   0.000000   0.000000
     4  C   -0.000000   0.000000   0.000000   0.000000   0.000000   0.000000
     5  C   -0.000000  -0.000000   0.000000  -0.000000  -0.000000   0.000000
     6  C   -0.000000   0.000000   0.000000  -0.000000  -0.000000   0.000000
     7  O    0.000000  -0.000000  -0.000000   0.000000   0.000000  -0.000000
     8  O    0.000000  -0.000000  -0.000000   0.000000   0.000000  -0.000000
     9  C   -0.000000  -0.000000  -0.000000   0.000000   0.000000  -0.000000
    10  C    0.000016   0.000020   0.000001  -0.000001   0.000000   0.000000
    11  N   -0.000069   0.000102  -0.000006   0.000001  -0.000001  -0.000000
    12  H   -0.000000   0.000000   0.000000   0.000000  -0.000000  -0.000000
    13  H   -0.000000   0.000000   0.000000  -0.000000  -0.000000   0.000000
    14  H   -0.000000   0.000000   0.000000  -0.000000   0.000000   0.000000
    15  H   -0.000000   0.000000  -0.000000  -0.000000  -0.000000   0.000000
    16  H   -0.000000   0.000000   0.000000   0.000000  -0.000000   0.000000
    17  H   -0.000000   0.000000   0.000000  -0.000000  -0.000000   0.000000
    18  H    0.000000   0.000000  -0.000000   0.000000  -0.000000  -0.000000
    19  H    0.000008  -0.000005  -0.000005   0.000000   0.000000  -0.000000
    20  H   -0.000005   0.000001   0.000009  -0.000002  -0.000000   0.000000
    21  H    0.000011  -0.000007  -0.000004   0.000000   0.000000  -0.000000
    22  C    0.000270  -0.002166   0.001024  -0.000050   0.000016   0.000015
    23  H   -0.000156  -0.000016   0.000282  -0.000016  -0.000001   0.000002
    24  O   -0.000333   0.000740   0.000238   0.000003  -0.000053  -0.000000
    25  H    0.000543   0.000086  -0.000410   0.000005   0.000015  -0.000005
    26  C    0.008955   0.005422  -0.001420  -0.000267  -0.000311   0.000011
    27  H   -0.000395   0.000088   0.000172  -0.000064  -0.000001  -0.000001
    28  C    0.000517  -0.006695  -0.000295   0.000013   0.000123  -0.000004
    29  H   -0.001246  -0.001229   0.000129  -0.000000   0.000025   0.000002
    30  H   -0.000015   0.000494  -0.000000  -0.000000  -0.000001   0.000000
    31  H    0.001409  -0.002639   0.000096  -0.000001  -0.000038   0.000000
    32  C   -0.061557  -0.045100  -0.066475   0.008136   0.007855  -0.001300
    33  C   -0.046928   0.001950  -0.038710  -0.039760  -0.000882   0.005122
    34  C    0.491594   0.413165  -0.039423  -0.001981  -0.036526   0.005977
    35  C   -0.052397  -0.000280   0.480911   0.425552   0.004631  -0.035381
    36  H   -0.002018  -0.000122   0.005357  -0.003585   0.000043  -0.000145
    37  C    4.969860  -0.009912   0.494444   0.005775   0.420828  -0.035428
    38  H   -0.009912   0.439433   0.002880   0.000043  -0.002873  -0.000166
    39  C    0.494444   0.002880   5.009002  -0.035852  -0.034605   0.422230
    40  H    0.005775   0.000043  -0.035852   0.463414  -0.000157  -0.003622
    41  H    0.420828  -0.002873  -0.034605  -0.000157   0.463155  -0.003583
    42  H   -0.035428  -0.000166   0.422230  -0.003622  -0.003583   0.463426
 Mulliken charges:
               1
     1  C   -0.227383
     2  C   -0.258927
     3  C    0.095691
     4  C   -0.289881
     5  C    0.199058
     6  C    0.183074
     7  O   -0.507617
     8  O   -0.534229
     9  C   -0.383862
    10  C   -0.250976
    11  N   -0.394746
    12  H    0.194431
    13  H    0.188442
    14  H    0.190716
    15  H    0.386629
    16  H    0.394115
    17  H    0.175708
    18  H    0.188772
    19  H    0.177410
    20  H    0.169023
    21  H    0.248019
    22  C    0.015489
    23  H    0.185755
    24  O   -0.554539
    25  H    0.379221
    26  C   -0.130384
    27  H    0.198128
    28  C   -0.515090
    29  H    0.180425
    30  H    0.170014
    31  H    0.163522
    32  C    0.090877
    33  C   -0.242969
    34  C   -0.264070
    35  C   -0.181868
    36  H    0.190974
    37  C   -0.183772
    38  H    0.206785
    39  C   -0.199570
    40  H    0.182417
    41  H    0.182337
    42  H    0.182851
 Sum of Mulliken charges =  -0.00000
 Mulliken charges with hydrogens summed into heavy atoms:
               1
     1  C   -0.032952
     2  C   -0.070485
     3  C    0.095691
     4  C   -0.099165
     5  C    0.199058
     6  C    0.183074
     7  O   -0.120988
     8  O   -0.140114
     9  C   -0.019381
    10  C    0.095457
    11  N   -0.146727
    22  C    0.201244
    24  O   -0.175318
    26  C    0.067744
    28  C   -0.001129
    32  C    0.090877
    33  C   -0.051995
    34  C   -0.057285
    35  C    0.000549
    37  C   -0.001435
    39  C   -0.016719
 Electronic spatial extent (au):  <R**2>=          10641.9553
 Charge=             -0.0000 electrons
 Dipole moment (field-independent basis, Debye):
    X=             -1.8113    Y=              2.0858    Z=              2.3712  Tot=              3.6405
 Quadrupole moment (field-independent basis, Debye-Ang):
   XX=           -100.4144   YY=           -132.2775   ZZ=           -120.5383
   XY=              7.7792   XZ=            -20.5691   YZ=             -3.1865
 Traceless Quadrupole moment (field-independent basis, Debye-Ang):
   XX=             17.3290   YY=            -14.5341   ZZ=             -2.7949
   XY=              7.7792   XZ=            -20.5691   YZ=             -3.1865
 Octapole moment (field-independent basis, Debye-Ang**2):
  XXX=            -96.6509  YYY=             42.7531  ZZZ=              2.6801  XYY=            -13.7714
  XXY=             37.2435  XXZ=            117.5896  XZZ=            -56.9034  YZZ=            -10.8199
  YYZ=              4.7004  XYZ=            -25.1165
 Hexadecapole moment (field-independent basis, Debye-Ang**3):
 XXXX=          -9962.1250 YYYY=          -1535.0612 ZZZZ=           -752.3012 XXXY=           -232.5561
 XXXZ=           -806.4491 YYYX=              0.1590 YYYZ=            -36.4738 ZZZX=           -178.1222
 ZZZY=             25.6728 XXYY=          -2171.4596 XXZZ=          -1974.2166 YYZZ=           -408.3932
 XXYZ=            -28.3147 YYXZ=            -25.6386 ZZXY=            -40.8678
 N-N= 1.573507182012D+03 E-N=-5.339685453112D+03  KE= 9.362909169567D+02
 Unable to Open any file for archive entry.
 1\1\GINC-BIO3-HORSEA-12U\FOpt\RM062X\def2TZVP\C17H21N1O3\VIP13T32\21-A
 pr-2023\0\\# opt m062x/def2tzvp scrf=(smd,solvent=water)\\Title Card R
 equired\\0,1\C,24.9901043293,40.9393270112,41.8407814078\C,25.52663381
 18,39.785967127,41.2765651109\C,24.896593238,39.1563563084,40.20960043
 02\C,23.7154631229,39.7059262039,39.710086592\C,23.1775692989,40.85194
 04943,40.2659056608\C,23.8179125129,41.4737810021,41.3391641485\O,22.0
 13820674,41.3670119763,39.7588095571\O,23.2124398768,42.6016060853,41.
 8325225066\C,25.4931962564,37.9345212566,39.5648319025\C,26.3003172057
 ,38.296494353,38.3239398727\N,26.8652755488,37.0962614347,37.710029361
 8\H,25.4755719747,41.4298485471,42.676642537\H,26.4440139937,39.372588
 5312,41.6780033568\H,23.1976030372,39.2387185149,38.879792662\H,21.770
 7889411,42.15383855,40.2670511808\H,23.7248542712,42.9551557015,42.571
 4588573\H,26.1418457142,37.4206474406,40.276708763\H,24.6989182216,37.
 2401833985,39.2776158671\H,27.1101556347,38.9712786239,38.6105856563\H
 ,25.6539177207,38.8449264924,37.6235018047\H,26.1232793013,36.40326055
 66,37.6469696236\C,27.3245759248,37.3215570785,36.3545312848\H,26.5008
 063909,37.6624578405,35.7089122899\O,27.7653065093,36.0549432742,35.89
 29813337\H,27.8953827301,36.1102654523,34.9374752402\C,28.4415188539,3
 8.3797074226,36.2767838975\H,27.9859971843,39.3269929873,36.5762317704
 \C,29.5968646783,38.0664735596,37.2189947706\H,30.4243344594,38.757131
 9905,37.0511872143\H,29.2786554059,38.16294294,38.2566538491\H,29.9689
 204465,37.0510941685,37.0765694501\C,28.8537927723,38.5351479252,34.82
 83973377\C,28.0961300404,39.3469933248,33.9832019617\C,29.9421436888,3
 7.8516484425,34.2885845184\C,28.4157851746,39.4778066079,32.6390845295
 \H,27.2483733928,39.8868398444,34.391298984\C,30.265666579,37.97959079
 45,32.9420059797\H,30.5485869731,37.2153211226,34.9211757223\C,29.5047
 758261,38.7923318574,32.1129941671\H,27.8177078385,40.1179677267,32.00
 26376414\H,31.116670196,37.4423677152,32.5421408541\H,29.7592223693,38
 .8939320454,31.0656757241\\Version=ES64L-G16RevC.01\State=1-A\HF=-940.
 8719686\RMSD=2.924e-09\RMSF=3.820e-06\Dipole=0.0146746,1.3736108,0.405
 5463\Quadrupole=-12.209598,-5.3003228,17.5099208,0.0622263,-2.0362029,
 13.0548973\PG=C01 [X(C17H21N1O3)]\\@
 The archive entry for this job was punched.


 The best way to pay for a lovely moment is to enjoy it.
 -- Richard Bach
 Job cpu time:       1 days  7 hours 26 minutes 27.5 seconds.
 Elapsed time:       0 days  2 hours 38 minutes 27.5 seconds.
 File lengths (MBytes):  RWF=    553 Int=      0 D2E=      0 Chk=     47 Scr=      1
 Normal termination of Gaussian 16 at Fri Apr 21 12:58:36 2023.
