 Entering Gaussian System, Link 0=g16
 Input=int1_vac.gjf
 Output=int1_vac.log
 Initial command:
 /home/data/vip13t32/docs/gaussian/gaussian/g16/l1.exe "/home/data/vip13t32/Rtmp/Gau-3111035.inp" -scrdir="/home/data/vip13t32/Rtmp/"
 Entering Link 1 = /home/data/vip13t32/docs/gaussian/gaussian/g16/l1.exe PID=   3111037.
  
 Copyright (c) 1988-2019, Gaussian, Inc.  All Rights Reserved.
  
 This is part of the Gaussian(R) 16 program.  It is based on
 the Gaussian(R) 09 system (copyright 2009, Gaussian, Inc.),
 the Gaussian(R) 03 system (copyright 2003, Gaussian, Inc.),
 the Gaussian(R) 98 system (copyright 1998, Gaussian, Inc.),
 the Gaussian(R) 94 system (copyright 1995, Gaussian, Inc.),
 the Gaussian 92(TM) system (copyright 1992, Gaussian, Inc.),
 the Gaussian 90(TM) system (copyright 1990, Gaussian, Inc.),
 the Gaussian 88(TM) system (copyright 1988, Gaussian, Inc.),
 the Gaussian 86(TM) system (copyright 1986, Carnegie Mellon
 University), and the Gaussian 82(TM) system (copyright 1983,
 Carnegie Mellon University). Gaussian is a federally registered
 trademark of Gaussian, Inc.
  
 This software contains proprietary and confidential information,
 including trade secrets, belonging to Gaussian, Inc.
  
 This software is provided under written license and may be
 used, copied, transmitted, or stored only in accord with that
 written license.
  
 The following legend is applicable only to US Government
 contracts under FAR:
  
                    RESTRICTED RIGHTS LEGEND
  
 Use, reproduction and disclosure by the US Government is
 subject to restrictions as set forth in subparagraphs (a)
 and (c) of the Commercial Computer Software - Restricted
 Rights clause in FAR 52.227-19.
  
 Gaussian, Inc.
 340 Quinnipiac St., Bldg. 40, Wallingford CT 06492
  
  
 ---------------------------------------------------------------
 Warning -- This program may not be used in any manner that
 competes with the business of Gaussian, Inc. or will provide
 assistance to any competitor of Gaussian, Inc.  The licensee
 of this program is prohibited from giving any competitor of
 Gaussian, Inc. access to this program.  By using this program,
 the user acknowledges that Gaussian, Inc. is engaged in the
 business of creating and licensing software in the field of
 computational chemistry and represents and warrants to the
 licensee that it is not a competitor of Gaussian, Inc. and that
 it will not use this program in any manner prohibited above.
 ---------------------------------------------------------------
  

 Cite this work as:
 Gaussian 16, Revision C.01,
 M. J. Frisch, G. W. Trucks, H. B. Schlegel, G. E. Scuseria, 
 M. A. Robb, J. R. Cheeseman, G. Scalmani, V. Barone, 
 G. A. Petersson, H. Nakatsuji, X. Li, M. Caricato, A. V. Marenich, 
 J. Bloino, B. G. Janesko, R. Gomperts, B. Mennucci, H. P. Hratchian, 
 J. V. Ortiz, A. F. Izmaylov, J. L. Sonnenberg, D. Williams-Young, 
 F. Ding, F. Lipparini, F. Egidi, J. Goings, B. Peng, A. Petrone, 
 T. Henderson, D. Ranasinghe, V. G. Zakrzewski, J. Gao, N. Rega, 
 G. Zheng, W. Liang, M. Hada, M. Ehara, K. Toyota, R. Fukuda, 
 J. Hasegawa, M. Ishida, T. Nakajima, Y. Honda, O. Kitao, H. Nakai, 
 T. Vreven, K. Throssell, J. A. Montgomery, Jr., J. E. Peralta, 
 F. Ogliaro, M. J. Bearpark, J. J. Heyd, E. N. Brothers, K. N. Kudin, 
 V. N. Staroverov, T. A. Keith, R. Kobayashi, J. Normand, 
 K. Raghavachari, A. P. Rendell, J. C. Burant, S. S. Iyengar, 
 J. Tomasi, M. Cossi, J. M. Millam, M. Klene, C. Adamo, R. Cammi, 
 J. W. Ochterski, R. L. Martin, K. Morokuma, O. Farkas, 
 J. B. Foresman, and D. J. Fox, Gaussian, Inc., Wallingford CT, 2019.
 
 ******************************************
 Gaussian 16:  ES64L-G16RevC.01  3-Jul-2019
                21-Apr-2023 
 ******************************************
 %mem=50GB
 %chk=/home/data/vip13t32/docs/g16out/mol_for_md/int1/vac.chk
 %nprocshared=12
 Will use up to   12 processors via shared memory.
 --------------------
 # opt m062x/def2tzvp
 --------------------
 1/18=20,19=15,26=3,38=1/1,3;
 2/9=110,12=2,17=6,18=5,40=1/2;
 3/5=44,7=101,11=2,25=1,30=1,71=1,74=-55/1,2,3;
 4//1;
 5/5=2,38=5/2;
 6/7=2,8=2,9=2,10=2,28=1/1;
 7//1,2,3,16;
 1/18=20,19=15,26=3/3(2);
 2/9=110/2;
 99//99;
 2/9=110/2;
 3/5=44,7=101,11=2,25=1,30=1,71=1,74=-55/1,2,3;
 4/5=5,16=3,69=1/1;
 5/5=2,38=5/2;
 7//1,2,3,16;
 1/18=20,19=15,26=3/3(-5);
 2/9=110/2;
 6/7=2,8=2,9=2,10=2,19=2,28=1/1;
 99/9=1/99;
 -------------------
 Title Card Required
 -------------------
 Symbolic Z-matrix:
 Charge =  0 Multiplicity = 1
 C                     24.95165   41.36108   41.44247 
 C                     25.60126   40.26491   40.89948 
 C                     24.88778   39.27252   40.24424 
 C                     23.50906   39.39665   40.13303 
 C                     22.8455   40.48717   40.67031 
 C                     23.57907   41.47921   41.33271 
 O                     21.49587   40.59078   40.55567 
 O                     22.86829   42.53986   41.85037 
 C                     25.59887   38.10588   39.62236 
 C                     26.01654   38.43378   38.18569 
 N                     26.85716   37.37785   37.66232 
 H                     25.51426   42.12919   41.95645 
 H                     26.67338   40.18292   40.99311 
 H                     22.92416   38.64325   39.62956 
 H                     21.22518   41.40937   40.99368 
 H                     23.4775   43.14692   42.28295 
 H                     26.49798   37.86347   40.19008 
 H                     24.94939   37.22903   39.61433 
 H                     26.60112   39.35945   38.18513 
 H                     25.1168   38.60907   37.56901 
 H                     26.38563   36.48096   37.71906 
 C                     27.29324   37.56381   36.29803 
 H                     26.56874   38.19464   35.72756 
 O                     27.35504   36.29232   35.71223 
 H                     27.90381   36.34577   34.91974 
 C                     28.66984   38.28584   36.27364 
 H                     28.51344   39.26673   36.73305 
 C                     29.67978   37.50615   37.11077 
 H                     30.67618   37.92607   36.99425 
 H                     29.3874   37.55717   38.15521 
 H                     29.6941   36.45818   36.82373 
 C                     29.07673   38.49247   34.83876 
 C                     28.60535   39.60794   34.15231 
 C                     29.85691   37.57209   34.14671 
 C                     28.908    39.80313   32.81769 
 H                     27.997    40.33226   34.67591 
 C                     30.16309   37.76778   32.81009 
 H                     30.24757   36.70134   34.65171 
 C                     29.68926   38.88154   32.14059 
 H                     28.5351   40.67725   32.30411 
 H                     30.77545   37.04449   32.29132 
 H                     29.92898   39.03289   31.09866 
 

 GradGradGradGradGradGradGradGradGradGradGradGradGradGradGradGradGradGrad
 Berny optimization.
 Initialization pass.
                           ----------------------------
                           !    Initial Parameters    !
                           ! (Angstroms and Degrees)  !
 --------------------------                            --------------------------
 ! Name  Definition              Value          Derivative Info.                !
 --------------------------------------------------------------------------------
 ! R1    R(1,2)                  1.3851         estimate D2E/DX2                !
 ! R2    R(1,6)                  1.382          estimate D2E/DX2                !
 ! R3    R(1,12)                 1.082          estimate D2E/DX2                !
 ! R4    R(2,3)                  1.3868         estimate D2E/DX2                !
 ! R5    R(2,13)                 1.0793         estimate D2E/DX2                !
 ! R6    R(3,4)                  1.3888         estimate D2E/DX2                !
 ! R7    R(3,9)                  1.5011         estimate D2E/DX2                !
 ! R8    R(4,5)                  1.385          estimate D2E/DX2                !
 ! R9    R(4,14)                 1.0785         estimate D2E/DX2                !
 ! R10   R(5,6)                  1.4004         estimate D2E/DX2                !
 ! R11   R(5,7)                  1.3585         estimate D2E/DX2                !
 ! R12   R(6,8)                  1.3777         estimate D2E/DX2                !
 ! R13   R(7,15)                 0.9671         estimate D2E/DX2                !
 ! R14   R(8,16)                 0.9627         estimate D2E/DX2                !
 ! R15   R(9,10)                 1.5317         estimate D2E/DX2                !
 ! R16   R(9,17)                 1.0906         estimate D2E/DX2                !
 ! R17   R(9,18)                 1.0912         estimate D2E/DX2                !
 ! R18   R(10,11)                1.4476         estimate D2E/DX2                !
 ! R19   R(10,19)                1.0948         estimate D2E/DX2                !
 ! R20   R(10,20)                1.1048         estimate D2E/DX2                !
 ! R21   R(11,21)                1.0149         estimate D2E/DX2                !
 ! R22   R(11,22)                1.4443         estimate D2E/DX2                !
 ! R23   R(22,23)                1.1173         estimate D2E/DX2                !
 ! R24   R(22,24)                1.4013         estimate D2E/DX2                !
 ! R25   R(22,26)                1.5547         estimate D2E/DX2                !
 ! R26   R(24,25)                0.9654         estimate D2E/DX2                !
 ! R27   R(26,27)                1.0944         estimate D2E/DX2                !
 ! R28   R(26,28)                1.526          estimate D2E/DX2                !
 ! R29   R(26,32)                1.5057         estimate D2E/DX2                !
 ! R30   R(28,29)                1.0875         estimate D2E/DX2                !
 ! R31   R(28,30)                1.0858         estimate D2E/DX2                !
 ! R32   R(28,31)                1.0867         estimate D2E/DX2                !
 ! R33   R(32,33)                1.392          estimate D2E/DX2                !
 ! R34   R(32,34)                1.3909         estimate D2E/DX2                !
 ! R35   R(33,35)                1.3824         estimate D2E/DX2                !
 ! R36   R(33,36)                1.0812         estimate D2E/DX2                !
 ! R37   R(34,37)                1.3851         estimate D2E/DX2                !
 ! R38   R(34,38)                1.0797         estimate D2E/DX2                !
 ! R39   R(35,39)                1.385          estimate D2E/DX2                !
 ! R40   R(35,40)                1.0802         estimate D2E/DX2                !
 ! R41   R(37,39)                1.3832         estimate D2E/DX2                !
 ! R42   R(37,41)                1.0804         estimate D2E/DX2                !
 ! R43   R(39,42)                1.0798         estimate D2E/DX2                !
 ! A1    A(2,1,6)              120.1537         estimate D2E/DX2                !
 ! A2    A(2,1,12)             120.2773         estimate D2E/DX2                !
 ! A3    A(6,1,12)             119.5689         estimate D2E/DX2                !
 ! A4    A(1,2,3)              120.6815         estimate D2E/DX2                !
 ! A5    A(1,2,13)             119.4721         estimate D2E/DX2                !
 ! A6    A(3,2,13)             119.8458         estimate D2E/DX2                !
 ! A7    A(2,3,4)              118.9886         estimate D2E/DX2                !
 ! A8    A(2,3,9)              120.5419         estimate D2E/DX2                !
 ! A9    A(4,3,9)              120.435          estimate D2E/DX2                !
 ! A10   A(3,4,5)              120.994          estimate D2E/DX2                !
 ! A11   A(3,4,14)             120.8868         estimate D2E/DX2                !
 ! A12   A(5,4,14)             118.1185         estimate D2E/DX2                !
 ! A13   A(4,5,6)              119.3616         estimate D2E/DX2                !
 ! A14   A(4,5,7)              120.2192         estimate D2E/DX2                !
 ! A15   A(6,5,7)              120.4191         estimate D2E/DX2                !
 ! A16   A(1,6,5)              119.8197         estimate D2E/DX2                !
 ! A17   A(1,6,8)              123.2534         estimate D2E/DX2                !
 ! A18   A(5,6,8)              116.9269         estimate D2E/DX2                !
 ! A19   A(5,7,15)             107.7234         estimate D2E/DX2                !
 ! A20   A(6,8,16)             109.136          estimate D2E/DX2                !
 ! A21   A(3,9,10)             110.571          estimate D2E/DX2                !
 ! A22   A(3,9,17)             110.3413         estimate D2E/DX2                !
 ! A23   A(3,9,18)             110.2191         estimate D2E/DX2                !
 ! A24   A(10,9,17)            108.1216         estimate D2E/DX2                !
 ! A25   A(10,9,18)            109.1122         estimate D2E/DX2                !
 ! A26   A(17,9,18)            108.4154         estimate D2E/DX2                !
 ! A27   A(9,10,11)            109.9572         estimate D2E/DX2                !
 ! A28   A(9,10,19)            109.0927         estimate D2E/DX2                !
 ! A29   A(9,10,20)            109.6006         estimate D2E/DX2                !
 ! A30   A(11,10,19)           107.8478         estimate D2E/DX2                !
 ! A31   A(11,10,20)           112.7582         estimate D2E/DX2                !
 ! A32   A(19,10,20)           107.4824         estimate D2E/DX2                !
 ! A33   A(10,11,21)           110.7699         estimate D2E/DX2                !
 ! A34   A(10,11,22)           115.0199         estimate D2E/DX2                !
 ! A35   A(21,11,22)           107.8708         estimate D2E/DX2                !
 ! A36   A(11,22,23)           111.0518         estimate D2E/DX2                !
 ! A37   A(11,22,24)           106.9402         estimate D2E/DX2                !
 ! A38   A(11,22,26)           109.9962         estimate D2E/DX2                !
 ! A39   A(23,22,24)           109.1154         estimate D2E/DX2                !
 ! A40   A(23,22,26)           107.6951         estimate D2E/DX2                !
 ! A41   A(24,22,26)           112.0734         estimate D2E/DX2                !
 ! A42   A(22,24,25)           108.5413         estimate D2E/DX2                !
 ! A43   A(22,26,27)           106.4475         estimate D2E/DX2                !
 ! A44   A(22,26,28)           109.8846         estimate D2E/DX2                !
 ! A45   A(22,26,32)           108.5398         estimate D2E/DX2                !
 ! A46   A(27,26,28)           108.7988         estimate D2E/DX2                !
 ! A47   A(27,26,32)           108.4009         estimate D2E/DX2                !
 ! A48   A(28,26,32)           114.4593         estimate D2E/DX2                !
 ! A49   A(26,28,29)           110.5061         estimate D2E/DX2                !
 ! A50   A(26,28,30)           108.9938         estimate D2E/DX2                !
 ! A51   A(26,28,31)           110.8888         estimate D2E/DX2                !
 ! A52   A(29,28,30)           109.3678         estimate D2E/DX2                !
 ! A53   A(29,28,31)           109.3901         estimate D2E/DX2                !
 ! A54   A(30,28,31)           107.6349         estimate D2E/DX2                !
 ! A55   A(26,32,33)           119.2357         estimate D2E/DX2                !
 ! A56   A(26,32,34)           122.3377         estimate D2E/DX2                !
 ! A57   A(33,32,34)           118.3479         estimate D2E/DX2                !
 ! A58   A(32,33,35)           121.0053         estimate D2E/DX2                !
 ! A59   A(32,33,36)           119.2471         estimate D2E/DX2                !
 ! A60   A(35,33,36)           119.7471         estimate D2E/DX2                !
 ! A61   A(32,34,37)           120.705          estimate D2E/DX2                !
 ! A62   A(32,34,38)           120.2554         estimate D2E/DX2                !
 ! A63   A(37,34,38)           119.0308         estimate D2E/DX2                !
 ! A64   A(33,35,39)           120.1027         estimate D2E/DX2                !
 ! A65   A(33,35,40)           119.8475         estimate D2E/DX2                !
 ! A66   A(39,35,40)           120.0497         estimate D2E/DX2                !
 ! A67   A(34,37,39)           120.3388         estimate D2E/DX2                !
 ! A68   A(34,37,41)           119.6078         estimate D2E/DX2                !
 ! A69   A(39,37,41)           120.0534         estimate D2E/DX2                !
 ! A70   A(35,39,37)           119.4991         estimate D2E/DX2                !
 ! A71   A(35,39,42)           120.2452         estimate D2E/DX2                !
 ! A72   A(37,39,42)           120.2555         estimate D2E/DX2                !
 ! D1    D(6,1,2,3)             -0.1855         estimate D2E/DX2                !
 ! D2    D(6,1,2,13)          -179.8935         estimate D2E/DX2                !
 ! D3    D(12,1,2,3)           179.7078         estimate D2E/DX2                !
 ! D4    D(12,1,2,13)           -0.0003         estimate D2E/DX2                !
 ! D5    D(2,1,6,5)             -0.0113         estimate D2E/DX2                !
 ! D6    D(2,1,6,8)            179.8761         estimate D2E/DX2                !
 ! D7    D(12,1,6,5)          -179.9053         estimate D2E/DX2                !
 ! D8    D(12,1,6,8)            -0.0179         estimate D2E/DX2                !
 ! D9    D(1,2,3,4)              0.3492         estimate D2E/DX2                !
 ! D10   D(1,2,3,9)            178.2218         estimate D2E/DX2                !
 ! D11   D(13,2,3,4)          -179.9438         estimate D2E/DX2                !
 ! D12   D(13,2,3,9)            -2.0713         estimate D2E/DX2                !
 ! D13   D(2,3,4,5)             -0.3224         estimate D2E/DX2                !
 ! D14   D(2,3,4,14)           179.9826         estimate D2E/DX2                !
 ! D15   D(9,3,4,5)           -178.1973         estimate D2E/DX2                !
 ! D16   D(9,3,4,14)             2.1077         estimate D2E/DX2                !
 ! D17   D(2,3,9,10)           -87.949          estimate D2E/DX2                !
 ! D18   D(2,3,9,17)            31.6184         estimate D2E/DX2                !
 ! D19   D(2,3,9,18)           151.3266         estimate D2E/DX2                !
 ! D20   D(4,3,9,10)            89.8926         estimate D2E/DX2                !
 ! D21   D(4,3,9,17)          -150.5399         estimate D2E/DX2                !
 ! D22   D(4,3,9,18)           -30.8318         estimate D2E/DX2                !
 ! D23   D(3,4,5,6)              0.1306         estimate D2E/DX2                !
 ! D24   D(3,4,5,7)           -179.8118         estimate D2E/DX2                !
 ! D25   D(14,4,5,6)           179.8338         estimate D2E/DX2                !
 ! D26   D(14,4,5,7)            -0.1085         estimate D2E/DX2                !
 ! D27   D(4,5,6,1)              0.0385         estimate D2E/DX2                !
 ! D28   D(4,5,6,8)           -179.8559         estimate D2E/DX2                !
 ! D29   D(7,5,6,1)            179.9807         estimate D2E/DX2                !
 ! D30   D(7,5,6,8)              0.0864         estimate D2E/DX2                !
 ! D31   D(4,5,7,15)           179.7092         estimate D2E/DX2                !
 ! D32   D(6,5,7,15)            -0.2325         estimate D2E/DX2                !
 ! D33   D(1,6,8,16)            -0.2597         estimate D2E/DX2                !
 ! D34   D(5,6,8,16)           179.6307         estimate D2E/DX2                !
 ! D35   D(3,9,10,11)          172.1738         estimate D2E/DX2                !
 ! D36   D(3,9,10,19)           54.0913         estimate D2E/DX2                !
 ! D37   D(3,9,10,20)          -63.3418         estimate D2E/DX2                !
 ! D38   D(17,9,10,11)          51.2775         estimate D2E/DX2                !
 ! D39   D(17,9,10,19)         -66.8051         estimate D2E/DX2                !
 ! D40   D(17,9,10,20)         175.7618         estimate D2E/DX2                !
 ! D41   D(18,9,10,11)         -66.4448         estimate D2E/DX2                !
 ! D42   D(18,9,10,19)         175.4726         estimate D2E/DX2                !
 ! D43   D(18,9,10,20)          58.0395         estimate D2E/DX2                !
 ! D44   D(9,10,11,21)          56.1639         estimate D2E/DX2                !
 ! D45   D(9,10,11,22)         178.7932         estimate D2E/DX2                !
 ! D46   D(19,10,11,21)        175.0134         estimate D2E/DX2                !
 ! D47   D(19,10,11,22)        -62.3573         estimate D2E/DX2                !
 ! D48   D(20,10,11,21)        -66.4761         estimate D2E/DX2                !
 ! D49   D(20,10,11,22)         56.1532         estimate D2E/DX2                !
 ! D50   D(10,11,22,23)        -26.6659         estimate D2E/DX2                !
 ! D51   D(10,11,22,24)       -145.6158         estimate D2E/DX2                !
 ! D52   D(10,11,22,26)         92.4545         estimate D2E/DX2                !
 ! D53   D(21,11,22,23)         97.5051         estimate D2E/DX2                !
 ! D54   D(21,11,22,24)        -21.4448         estimate D2E/DX2                !
 ! D55   D(21,11,22,26)       -143.3745         estimate D2E/DX2                !
 ! D56   D(11,22,24,25)       -161.7813         estimate D2E/DX2                !
 ! D57   D(23,22,24,25)         78.0211         estimate D2E/DX2                !
 ! D58   D(26,22,24,25)        -41.1669         estimate D2E/DX2                !
 ! D59   D(11,22,26,27)        -62.1446         estimate D2E/DX2                !
 ! D60   D(11,22,26,28)         55.5058         estimate D2E/DX2                !
 ! D61   D(11,22,26,32)       -178.6418         estimate D2E/DX2                !
 ! D62   D(23,22,26,27)         59.0094         estimate D2E/DX2                !
 ! D63   D(23,22,26,28)        176.6597         estimate D2E/DX2                !
 ! D64   D(23,22,26,32)        -57.4879         estimate D2E/DX2                !
 ! D65   D(24,22,26,27)        179.0292         estimate D2E/DX2                !
 ! D66   D(24,22,26,28)        -63.3204         estimate D2E/DX2                !
 ! D67   D(24,22,26,32)         62.5319         estimate D2E/DX2                !
 ! D68   D(22,26,28,29)        172.4374         estimate D2E/DX2                !
 ! D69   D(22,26,28,30)        -67.3514         estimate D2E/DX2                !
 ! D70   D(22,26,28,31)         50.9622         estimate D2E/DX2                !
 ! D71   D(27,26,28,29)        -71.3837         estimate D2E/DX2                !
 ! D72   D(27,26,28,30)         48.8275         estimate D2E/DX2                !
 ! D73   D(27,26,28,31)        167.1411         estimate D2E/DX2                !
 ! D74   D(32,26,28,29)         50.0269         estimate D2E/DX2                !
 ! D75   D(32,26,28,30)        170.2381         estimate D2E/DX2                !
 ! D76   D(32,26,28,31)        -71.4483         estimate D2E/DX2                !
 ! D77   D(22,26,32,33)         84.7816         estimate D2E/DX2                !
 ! D78   D(22,26,32,34)        -91.9365         estimate D2E/DX2                !
 ! D79   D(27,26,32,33)        -30.4511         estimate D2E/DX2                !
 ! D80   D(27,26,32,34)        152.8308         estimate D2E/DX2                !
 ! D81   D(28,26,32,33)       -152.08           estimate D2E/DX2                !
 ! D82   D(28,26,32,34)         31.2019         estimate D2E/DX2                !
 ! D83   D(26,32,33,35)       -177.1508         estimate D2E/DX2                !
 ! D84   D(26,32,33,36)          3.1055         estimate D2E/DX2                !
 ! D85   D(34,32,33,35)         -0.3014         estimate D2E/DX2                !
 ! D86   D(34,32,33,36)        179.9548         estimate D2E/DX2                !
 ! D87   D(26,32,34,37)        177.1732         estimate D2E/DX2                !
 ! D88   D(26,32,34,38)         -3.9165         estimate D2E/DX2                !
 ! D89   D(33,32,34,37)          0.4273         estimate D2E/DX2                !
 ! D90   D(33,32,34,38)        179.3375         estimate D2E/DX2                !
 ! D91   D(32,33,35,39)          0.1082         estimate D2E/DX2                !
 ! D92   D(32,33,35,40)       -179.7879         estimate D2E/DX2                !
 ! D93   D(36,33,35,39)        179.8507         estimate D2E/DX2                !
 ! D94   D(36,33,35,40)         -0.0454         estimate D2E/DX2                !
 ! D95   D(32,34,37,39)         -0.3626         estimate D2E/DX2                !
 ! D96   D(32,34,37,41)        179.6361         estimate D2E/DX2                !
 ! D97   D(38,34,37,39)       -179.2861         estimate D2E/DX2                !
 ! D98   D(38,34,37,41)          0.7126         estimate D2E/DX2                !
 ! D99   D(33,35,39,37)         -0.0336         estimate D2E/DX2                !
 ! D100  D(33,35,39,42)       -179.8584         estimate D2E/DX2                !
 ! D101  D(40,35,39,37)        179.8623         estimate D2E/DX2                !
 ! D102  D(40,35,39,42)          0.0375         estimate D2E/DX2                !
 ! D103  D(34,37,39,35)          0.1599         estimate D2E/DX2                !
 ! D104  D(34,37,39,42)        179.9847         estimate D2E/DX2                !
 ! D105  D(41,37,39,35)       -179.8388         estimate D2E/DX2                !
 ! D106  D(41,37,39,42)         -0.014          estimate D2E/DX2                !
 --------------------------------------------------------------------------------
 Trust Radius=3.00D-01 FncErr=1.00D-07 GrdErr=1.00D-06 EigMax=2.50D+02 EigMin=1.00D-04
 Number of steps in this run=    231 maximum allowed number of steps=    252.
 GradGradGradGradGradGradGradGradGradGradGradGradGradGradGradGradGradGrad

                          Input orientation:                          
 ---------------------------------------------------------------------
 Center     Atomic      Atomic             Coordinates (Angstroms)
 Number     Number       Type             X           Y           Z
 ---------------------------------------------------------------------
      1          6           0       24.951650   41.361079   41.442468
      2          6           0       25.601262   40.264912   40.899483
      3          6           0       24.887784   39.272525   40.244235
      4          6           0       23.509055   39.396648   40.133027
      5          6           0       22.845503   40.487166   40.670312
      6          6           0       23.579068   41.479208   41.332711
      7          8           0       21.495865   40.590779   40.555671
      8          8           0       22.868289   42.539863   41.850372
      9          6           0       25.598870   38.105876   39.622363
     10          6           0       26.016541   38.433775   38.185694
     11          7           0       26.857158   37.377853   37.662320
     12          1           0       25.514260   42.129192   41.956455
     13          1           0       26.673380   40.182916   40.993113
     14          1           0       22.924163   38.643251   39.629564
     15          1           0       21.225184   41.409371   40.993685
     16          1           0       23.477505   43.146924   42.282947
     17          1           0       26.497978   37.863466   40.190077
     18          1           0       24.949393   37.229029   39.614326
     19          1           0       26.601118   39.359446   38.185128
     20          1           0       25.116801   38.609066   37.569009
     21          1           0       26.385629   36.480958   37.719060
     22          6           0       27.293237   37.563805   36.298026
     23          1           0       26.568741   38.194641   35.727558
     24          8           0       27.355044   36.292320   35.712230
     25          1           0       27.903812   36.345772   34.919742
     26          6           0       28.669845   38.285838   36.273643
     27          1           0       28.513441   39.266727   36.733052
     28          6           0       29.679782   37.506155   37.110771
     29          1           0       30.676177   37.926073   36.994255
     30          1           0       29.387403   37.557169   38.155209
     31          1           0       29.694104   36.458184   36.823727
     32          6           0       29.076734   38.492470   34.838762
     33          6           0       28.605348   39.607937   34.152308
     34          6           0       29.856911   37.572088   34.146708
     35          6           0       28.908001   39.803126   32.817686
     36          1           0       27.996998   40.332261   34.675911
     37          6           0       30.163089   37.767779   32.810091
     38          1           0       30.247566   36.701335   34.651705
     39          6           0       29.689264   38.881541   32.140593
     40          1           0       28.535104   40.677248   32.304111
     41          1           0       30.775452   37.044494   32.291316
     42          1           0       29.928983   39.032888   31.098660
 ---------------------------------------------------------------------
                    Distance matrix (angstroms):
                    1          2          3          4          5
     1  C    0.000000
     2  C    1.385066   0.000000
     3  C    2.408713   1.386807   0.000000
     4  C    2.766713   2.391373   1.388765   0.000000
     5  C    2.407448   2.774189   2.414085   1.384993   0.000000
     6  C    1.382021   2.398222   2.786928   2.404412   1.400371
     7  O    3.649962   4.132636   3.652383   2.378552   1.358455
     8  O    2.428232   3.680860   4.163356   3.638633   2.367832
     9  C    3.785237   2.508481   1.501146   2.508824   3.788109
    10  C    4.506625   3.300026   2.493027   3.317637   4.521639
    11  N    5.812621   4.515707   3.759588   4.624902   5.899934
    12  H    1.081994   2.144831   3.388911   3.848705   3.387135
    13  H    2.134091   1.079318   2.139622   3.372079   3.853494
    14  H    3.844986   3.377772   2.151654   1.078509   2.118812
    15  H    3.753703   4.524237   4.306092   3.163519   1.892212
    16  H    2.463484   3.838008   4.599587   4.322929   3.174009
    17  H    4.024041   2.659755   2.140351   3.359696   4.522720
    18  H    4.518400   3.360527   2.139265   2.653713   4.019566
    19  H    4.163837   3.031056   2.680110   3.654661   4.642471
    20  H    4.754423   3.750811   2.765766   3.127191   4.278334
    21  H    6.303621   5.004860   4.051283   4.754278   6.106724
    22  C    6.809375   5.597514   4.927321   5.690921   6.888052
    23  H    6.730639   5.654277   4.938403   5.496786   6.599166
    24  O    8.018993   6.764971   5.958864   6.631134   7.906660
    25  H    8.741539   7.511238   6.783254   7.469945   8.706704
    26  C    7.070985   5.893329   5.571637   6.539304   7.622303
    27  H    6.265083   5.180377   5.047161   6.051495   7.008353
    28  C    7.481930   6.212843   5.991820   7.126421   8.262212
    29  H    8.022224   6.817312   6.773537   7.961289   9.021755
    30  H    6.704603   5.403496   5.249099   6.469190   7.596517
    31  H    8.237840   6.917682   6.536138   7.605319   8.827924
    32  C    8.297840   7.207828   6.882944   7.736008   8.764361
    33  C    8.340829   7.414884   7.144533   7.860397   8.742610
    34  C    9.573199   8.423883   8.047580   8.914051  10.010741
    35  C    9.615965   8.744324   8.461519   9.100992   9.944120
    36  H    7.491255   6.669103   6.465020   7.127210   7.905362
    37  C   10.704617   9.616871   9.239026  10.027701  11.078141
    38  H    9.791547   8.562823   8.161781   9.094896  10.263853
    39  C   10.729304   9.764406   9.427412  10.116290  11.053108
    40  H    9.839630   9.091637   8.849958   9.391114  10.119339
    41  H   11.674466  10.547221  10.142864  10.946488  12.039255
    42  H   11.712756  10.784395  10.445700  11.089075  11.996130
                    6          7          8          9         10
     6  C    0.000000
     7  O    2.394333   0.000000
     8  O    1.377740   2.712698   0.000000
     9  C    4.287687   4.886764   5.663951   0.000000
    10  C    5.011951   5.541296   6.340450   1.531661   0.000000
    11  N    6.406150   6.887513   7.752238   2.440302   1.447594
    12  H    2.134597   4.525087   2.679751   4.652119   5.303492
    13  H    3.372013   5.211945   4.557281   2.710650   3.372319
    14  H    3.372279   2.586614   4.485387   2.728165   3.419275
    15  H    2.379199   0.967066   2.170650   5.650021   6.300483
    16  H    1.922118   3.666641   0.962698   6.082028   6.741510
    17  H    4.785315   5.709030   6.148162   1.090621   2.138828
    18  H    4.784836   4.910636   6.126650   1.091213   2.152024
    19  H    4.851129   5.761880   6.122343   2.154433   1.094805
    20  H    4.976725   5.094950   6.231937   2.168376   1.104789
    21  H    6.776264   6.989047   8.133249   2.623339   2.041437
    22  C    7.380615   7.803821   8.670055   3.770403   2.439281
    23  H    7.151522   7.401771   8.370373   4.014727   2.530720
    24  O    8.529455   8.733020   9.840709   4.654275   3.534890
    25  H    9.283412   9.531293  10.571513   5.524977   4.311379
    26  C    7.855431   8.666862   9.102455   4.547219   3.273813
    27  H    7.099294   8.100117   8.292655   4.265023   3.006408
    28  C    8.415976   9.399933   9.705590   4.829245   3.928776
    29  H    9.045216  10.201101  10.287470   5.719994   4.836270
    30  H    7.695171   8.788707   8.998906   4.099585   3.483113
    31  H    9.106881   9.910442  10.432916   5.226681   4.391172
    32  C    9.017555   9.723966  10.202394   5.926873   4.535436
    33  C    8.962328   9.618408  10.038437   6.420015   4.934448
    34  C   10.310942  10.958758  11.526754   6.956913   5.639535
    35  C   10.183929  10.744140  11.205234   7.754652   6.249093
    36  H    8.071343   8.769443   9.091208   5.930868   4.454777
    37  C   11.391185  11.961777  12.558407   8.206915   6.821622
    38  H   10.579829  11.250638  11.847487   6.949140   5.778581
    39  C   11.339197  11.868732  12.417279   8.562118   7.087499
    40  H   10.330588  10.846501  11.256697   8.293988   6.780070
    41  H   12.377458  12.922323  13.568267   9.037023   7.702015
    42  H   12.289902  12.766344  13.332351   9.605349   8.117400
                   11         12         13         14         15
    11  N    0.000000
    12  H    6.543561   0.000000
    13  H    4.358478   2.461621   0.000000
    14  H    4.575995   4.926948   4.276268   0.000000
    15  H    7.685718   4.454351   5.584536   3.521189   0.000000
    16  H    8.127387   2.300163   4.545617   5.256396   3.123178
    17  H    2.598920   4.720615   2.460788   3.700594   6.404809
    18  H    2.733504   5.460424   3.687632   2.470185   5.766075
    19  H    2.065331   4.803713   2.927132   4.014889   6.402410
    20  H    2.133878   5.639055   4.077307   3.009106   5.891927
    21  H    1.014880   7.114587   4.950425   4.506360   7.851281
    22  C    1.444313   7.485007   5.411821   5.599389   8.582474
    23  H    2.119819   7.442565   5.629410   5.358157   8.162119
    24  O    2.286728   8.743449   6.594629   6.364361   9.573566
    25  H    3.111657   9.416646   7.288585   7.228951  10.350695
    26  C    2.457375   7.551386   5.464263   6.663544   9.351911
    27  H    2.678555   6.668788   4.730047   6.326021   8.709914
    28  C    2.878867   7.886996   5.592503   7.299021  10.089220
    29  H    3.915580   8.302712   6.091518   8.219059  10.837439
    30  H    2.584034   7.096062   4.723787   6.717646   9.461407
    31  H    3.097950   8.716440   6.354697   7.647179  10.659522
    32  C    3.760500   8.750915   6.819805   7.799272  10.394143
    33  C    4.511056   8.764488   7.131599   7.950272  10.223327
    34  C    4.625556  10.030850   7.989026   8.903488  11.666728
    35  C    5.792959  10.022232   8.483830   9.140750  11.333695
    36  H    4.352746   7.899321   6.456106   7.288696   9.323728
    37  C    5.884331  11.148520   9.218069   9.983673  12.653796
    38  H    4.584359  10.257932   8.069055   9.065448  11.991234
    39  C    6.385246  11.150293   9.442258  10.094952  12.506311
    40  H    6.512443  10.217699   8.899951   9.448919  11.378912
    41  H    6.656714  12.122260  10.119187  10.865020  13.637852
    42  H    7.433497  12.123060  10.479585  11.045164  13.390866
                   16         17         18         19         20
    16  H    0.000000
    17  H    6.435704   0.000000
    18  H    6.656536   1.769778   0.000000
    19  H    6.394847   2.503680   3.051144   0.000000
    20  H    6.745418   3.055089   2.473024   1.773660   0.000000
    21  H    8.586114   2.833704   2.492873   2.923926   2.482193
    22  C    9.030521   3.983754   4.074743   2.695275   2.728523
    23  H    8.778039   4.475350   4.319915   2.719829   2.381348
    24  O   10.256472   4.822259   4.678775   4.011345   3.718154
    25  H   10.957401   5.661819   5.616748   4.630549   4.461899
    26  C    9.311406   4.498207   5.110653   3.014306   3.795599
    27  H    8.439071   4.240549   5.015615   2.402936   3.559285
    28  C    9.850783   4.442261   5.359214   3.750614   4.716693
    29  H   10.346421   5.260661   6.336143   4.480942   5.630585
    30  H    9.121978   3.547292   4.683229   3.318506   4.437134
    31  H   10.639005   4.849985   5.558231   4.453908   5.112088
    32  C   10.413030   5.973458   6.437176   4.251880   4.811331
    33  C   10.243363   6.628638   6.989911   4.510246   4.984130
    34  C   11.746233   6.920234   7.355017   5.486681   5.937685
    35  C   11.413257   7.995163   8.275921   5.859009   6.194678
    36  H    9.285211   6.224792   6.580721   3.899930   4.431134
    37  C   12.781519   8.240534   8.588976   6.641691   6.987137
    38  H   12.067112   6.788485   7.278510   5.731249   6.202809
    39  C   12.635141   8.718657   9.002992   6.804516   7.102771
    40  H   11.456691   8.617175   8.842329   6.329555   6.609185
    41  H   13.796100   9.019863   9.359674   7.584266   7.894445
    42  H   13.551204   9.787400  10.028299   7.835774   8.074783
                   21         22         23         24         25
    21  H    0.000000
    22  C    2.003908   0.000000
    23  H    2.633689   1.117265   0.000000
    24  O    2.236676   1.401304   2.058478   0.000000
    25  H    3.187372   1.938059   2.419359   0.965422   0.000000
    26  C    3.250303   1.554662   2.172824   2.453161   2.486707
    27  H    3.641471   2.139647   2.437673   3.351277   3.491664
    28  C    3.503212   2.521800   3.473596   2.972157   3.049781
    29  H    4.585031   3.472788   4.306703   3.916971   3.806175
    30  H    3.218556   2.799054   3.774218   3.420303   3.759890
    31  H    3.427558   2.694981   3.739621   2.595022   2.615901
    32  C    4.425420   2.484498   2.677441   2.927084   2.447573
    33  C    5.237067   3.241021   2.937106   3.871684   3.423862
    34  C    5.099222   3.346739   3.701178   3.216831   2.432289
    35  C    6.436041   4.442385   4.065306   4.807891   4.168972
    36  H    5.166217   3.284948   2.777643   4.219856   3.995026
    37  C    6.326381   4.521432   4.648996   4.299361   3.402509
    38  H    4.936780   3.490313   4.113536   3.107843   2.385677
    39  C    6.913472   4.976105   4.803729   4.990916   4.164329
    40  H    7.179886   5.214127   4.663680   5.677624   5.099191
    41  H    7.003466   5.333782   5.552209   4.895673   3.955143
    42  H    7.930788   6.011552   5.781053   5.951546   5.091422
                   26         27         28         29         30
    26  C    0.000000
    27  H    1.094378   0.000000
    28  C    1.525996   2.145376   0.000000
    29  H    2.161963   2.557931   1.087525   0.000000
    30  H    2.141528   2.389337   1.085790   1.773371   0.000000
    31  H    2.166107   3.047967   1.086665   1.774330   1.753476
    32  C    1.505701   2.122523   2.549217   2.743205   3.459787
    33  C    2.500433   2.604824   3.784759   3.897905   4.565137
    34  C    2.538191   3.371333   2.970082   2.984129   4.035931
    35  C    3.781866   3.971585   4.929736   4.908513   5.810620
    36  H    2.682035   2.373584   4.092332   4.282809   4.662604
    37  C    3.807145   4.511963   4.335652   4.218477   5.405214
    38  H    2.762342   3.731009   2.648984   2.677915   3.707677
    39  C    4.298393   4.756218   5.156980   5.044299   6.166092
    40  H    4.636181   4.648177   5.871124   5.843852   6.685556
    41  H    4.672627   5.457475   4.963947   4.785883   6.047707
    42  H    5.378099   5.814190   6.207937   6.044946   7.229519
                   31         32         33         34         35
    31  H    0.000000
    32  C    2.908530   0.000000
    33  C    4.271160   1.392010   0.000000
    34  C    2.904086   1.390941   2.389796   0.000000
    35  C    5.277779   2.414754   1.382358   2.764825   0.000000
    36  H    4.743601   2.139434   1.081154   3.370146   2.136096
    37  C    4.247853   2.412644   2.759400   1.385131   2.391221
    38  H    2.254577   2.148023   3.375591   1.079743   3.844368
    39  C    5.272990   2.794045   2.397817   2.401515   1.384972
    40  H    6.290525   3.389849   2.136397   3.845043   1.080232
    41  H    4.696362   3.386999   3.839777   2.136482   3.372609
    42  H    6.281771   3.873854   3.377493   3.380788   2.142597
                   36         37         38         39         40
    36  H    0.000000
    37  C    3.840547   0.000000
    38  H    4.271915   2.129785   0.000000
    39  C    3.375824   1.383186   3.372045   0.000000
    40  H    2.456422   3.372145   4.924592   2.140885   0.000000
    41  H    4.920925   1.080397   2.442921   2.139454   4.268047
    42  H    4.268215   2.141097   4.261662   1.079812   2.469804
                   41         42
    41  H    0.000000
    42  H    2.468328   0.000000
 Stoichiometry    C17H21NO3
 Framework group  C1[X(C17H21NO3)]
 Deg. of freedom   120
 Full point group                 C1      NOp   1
 Largest Abelian subgroup         C1      NOp   1
 Largest concise Abelian subgroup C1      NOp   1
                         Standard orientation:                         
 ---------------------------------------------------------------------
 Center     Atomic      Atomic             Coordinates (Angstroms)
 Number     Number       Type             X           Y           Z
 ---------------------------------------------------------------------
      1          6           0       -4.441121    0.517138    1.569682
      2          6           0       -3.332256   -0.294718    1.397292
      3          6           0       -3.008266   -0.793444    0.144480
      4          6           0       -3.809281   -0.460781   -0.940129
      5          6           0       -4.920926    0.350352   -0.783565
      6          6           0       -5.237731    0.843068    0.488403
      7          8           0       -5.695731    0.662705   -1.854786
      8          8           0       -6.355535    1.642386    0.587264
      9          6           0       -1.783609   -1.640405   -0.046071
     10          6           0       -0.561632   -0.762745   -0.333246
     11          7           0        0.638883   -1.571628   -0.332204
     12          1           0       -4.690534    0.898816    2.550920
     13          1           0       -2.718745   -0.543707    2.249663
     14          1           0       -3.585475   -0.831297   -1.927961
     15          1           0       -6.415889    1.227580   -1.542528
     16          1           0       -6.470858    1.911644    1.504318
     17          1           0       -1.580226   -2.220886    0.854558
     18          1           0       -1.929410   -2.332751   -0.876821
     19          1           0       -0.463198   -0.015131    0.460468
     20          1           0       -0.710391   -0.219903   -1.283904
     21          1           0        0.560481   -2.332921   -0.998737
     22          6           0        1.858988   -0.854348   -0.620121
     23          1           0        1.655294    0.049839   -1.244009
     24          8           0        2.687430   -1.728795   -1.336137
     25          1           0        3.593262   -1.397622   -1.293338
     26          6           0        2.519526   -0.376142    0.703504
     27          1           0        1.808048    0.308767    1.175055
     28          6           0        2.744463   -1.566822    1.631055
     29          1           0        3.324361   -1.267748    2.501104
     30          1           0        1.781286   -1.949687    1.954544
     31          1           0        3.260613   -2.370077    1.112200
     32          6           0        3.767809    0.394551    0.364450
     33          6           0        3.668270    1.748283    0.055916
     34          6           0        5.017065   -0.211495    0.282071
     35          6           0        4.781871    2.477300   -0.317367
     36          1           0        2.704079    2.233882    0.114413
     37          6           0        6.134161    0.518413   -0.089300
     38          1           0        5.131437   -1.257355    0.524846
     39          6           0        6.021120    1.863393   -0.391715
     40          1           0        4.683783    3.527735   -0.549455
     41          1           0        7.096973    0.031082   -0.141831
     42          1           0        6.892910    2.431182   -0.680836
 ---------------------------------------------------------------------
 Rotational constants (GHZ):           0.7110152           0.0973588           0.0937570
 Standard basis: def2TZVP (5D, 7F)
 There are   882 symmetry adapted cartesian basis functions of A   symmetry.
 There are   777 symmetry adapted basis functions of A   symmetry.
   777 basis functions,  1239 primitive gaussians,   882 cartesian basis functions
    77 alpha electrons       77 beta electrons
       nuclear repulsion energy      1566.1870311336 Hartrees.
 NAtoms=   42 NActive=   42 NUniq=   42 SFac= 1.00D+00 NAtFMM=   60 NAOKFM=F Big=F
 Integral buffers will be    131072 words long.
 Raffenetti 2 integral format.
 Two-electron integral symmetry is turned on.
 One-electron integrals computed using PRISM.
   1 Symmetry operations used in ECPInt.
 ECPInt:  NShTT=   49770 NPrTT=  149856 LenC2=   39629 LenP2D=   84563.
 LDataN:  DoStor=T MaxTD1= 6 Len=  172
 NBasis=   777 RedAO= T EigKep=  7.41D-06  NBF=   777
 NBsUse=   777 1.00D-06 EigRej= -1.00D+00 NBFU=   777
 ExpMin= 9.52D-02 ExpMax= 2.70D+04 ExpMxC= 9.22D+02 IAcc=3 IRadAn=         5 AccDes= 0.00D+00
 Harris functional with IExCor= 1009 and IRadAn=       5 diagonalized for initial guess.
 HarFok:  IExCor= 1009 AccDes= 0.00D+00 IRadAn=         5 IDoV= 1 UseB2=F ITyADJ=14
 ICtDFT=  3500011 ScaDFX=  1.000000  1.000000  1.000000  1.000000
 FoFCou: FMM=F IPFlag=           0 FMFlag=      100000 FMFlg1=           0
         NFxFlg=           0 DoJE=T BraDBF=F KetDBF=T FulRan=T
         wScrn=  0.000000 ICntrl=       500 IOpCl=  0 I1Cent=   200000004 NGrid=           0
         NMat0=    1 NMatS0=      1 NMatT0=    0 NMatD0=    1 NMtDS0=    0 NMtDT0=    0
 Petite list used in FoFCou.
 Requested convergence on RMS density matrix=1.00D-08 within 128 cycles.
 Requested convergence on MAX density matrix=1.00D-06.
 Requested convergence on             energy=1.00D-06.
 No special actions if energy rises.
 Integral accuracy reduced to 1.0D-05 until final iterations.
 Initial convergence to 1.0D-05 achieved.  Increase integral accuracy.
 SCF Done:  E(RM062X) =  -940.841173871     A.U. after   22 cycles
            NFock= 22  Conv=0.73D-08     -V/T= 2.0046

 **********************************************************************

            Population analysis using the SCF Density.

 **********************************************************************

 Orbital symmetries:
       Occupied  (A) (A) (A) (A) (A) (A) (A) (A) (A) (A) (A) (A)
                 (A) (A) (A) (A) (A) (A) (A) (A) (A) (A) (A) (A)
                 (A) (A) (A) (A) (A) (A) (A) (A) (A) (A) (A) (A)
                 (A) (A) (A) (A) (A) (A) (A) (A) (A) (A) (A) (A)
                 (A) (A) (A) (A) (A) (A) (A) (A) (A) (A) (A) (A)
                 (A) (A) (A) (A) (A) (A) (A) (A) (A) (A) (A) (A)
                 (A) (A) (A) (A) (A)
       Virtual   (A) (A) (A) (A) (A) (A) (A) (A) (A) (A) (A) (A)
                 (A) (A) (A) (A) (A) (A) (A) (A) (A) (A) (A) (A)
                 (A) (A) (A) (A) (A) (A) (A) (A) (A) (A) (A) (A)
                 (A) (A) (A) (A) (A) (A) (A) (A) (A) (A) (A) (A)
                 (A) (A) (A) (A) (A) (A) (A) (A) (A) (A) (A) (A)
                 (A) (A) (A) (A) (A) (A) (A) (A) (A) (A) (A) (A)
                 (A) (A) (A) (A) (A) (A) (A) (A) (A) (A) (A) (A)
                 (A) (A) (A) (A) (A) (A) (A) (A) (A) (A) (A) (A)
                 (A) (A) (A) (A) (A) (A) (A) (A) (A) (A) (A) (A)
                 (A) (A) (A) (A) (A) (A) (A) (A) (A) (A) (A) (A)
                 (A) (A) (A) (A) (A) (A) (A) (A) (A) (A) (A) (A)
                 (A) (A) (A) (A) (A) (A) (A) (A) (A) (A) (A) (A)
                 (A) (A) (A) (A) (A) (A) (A) (A) (A) (A) (A) (A)
                 (A) (A) (A) (A) (A) (A) (A) (A) (A) (A) (A) (A)
                 (A) (A) (A) (A) (A) (A) (A) (A) (A) (A) (A) (A)
                 (A) (A) (A) (A) (A) (A) (A) (A) (A) (A) (A) (A)
                 (A) (A) (A) (A) (A) (A) (A) (A) (A) (A) (A) (A)
                 (A) (A) (A) (A) (A) (A) (A) (A) (A) (A) (A) (A)
                 (A) (A) (A) (A) (A) (A) (A) (A) (A) (A) (A) (A)
                 (A) (A) (A) (A) (A) (A) (A) (A) (A) (A) (A) (A)
                 (A) (A) (A) (A) (A) (A) (A) (A) (A) (A) (A) (A)
                 (A) (A) (A) (A) (A) (A) (A) (A) (A) (A) (A) (A)
                 (A) (A) (A) (A) (A) (A) (A) (A) (A) (A) (A) (A)
                 (A) (A) (A) (A) (A) (A) (A) (A) (A) (A) (A) (A)
                 (A) (A) (A) (A) (A) (A) (A) (A) (A) (A) (A) (A)
                 (A) (A) (A) (A) (A) (A) (A) (A) (A) (A) (A) (A)
                 (A) (A) (A) (A) (A) (A) (A) (A) (A) (A) (A) (A)
                 (A) (A) (A) (A) (A) (A) (A) (A) (A) (A) (A) (A)
                 (A) (A) (A) (A) (A) (A) (A) (A) (A) (A) (A) (A)
                 (A) (A) (A) (A) (A) (A) (A) (A) (A) (A) (A) (A)
                 (A) (A) (A) (A) (A) (A) (A) (A) (A) (A) (A) (A)
                 (A) (A) (A) (A) (A) (A) (A) (A) (A) (A) (A) (A)
                 (A) (A) (A) (A) (A) (A) (A) (A) (A) (A) (A) (A)
                 (A) (A) (A) (A) (A) (A) (A) (A) (A) (A) (A) (A)
                 (A) (A) (A) (A) (A) (A) (A) (A) (A) (A) (A) (A)
                 (A) (A) (A) (A) (A) (A) (A) (A) (A) (A) (A) (A)
                 (A) (A) (A) (A) (A) (A) (A) (A) (A) (A) (A) (A)
                 (A) (A) (A) (A) (A) (A) (A) (A) (A) (A) (A) (A)
                 (A) (A) (A) (A) (A) (A) (A) (A) (A) (A) (A) (A)
                 (A) (A) (A) (A) (A) (A) (A) (A) (A) (A) (A) (A)
                 (A) (A) (A) (A) (A) (A) (A) (A) (A) (A) (A) (A)
                 (A) (A) (A) (A) (A) (A) (A) (A) (A) (A) (A) (A)
                 (A) (A) (A) (A) (A) (A) (A) (A) (A) (A) (A) (A)
                 (A) (A) (A) (A) (A) (A) (A) (A) (A) (A) (A) (A)
                 (A) (A) (A) (A) (A) (A) (A) (A) (A) (A) (A) (A)
                 (A) (A) (A) (A) (A) (A) (A) (A) (A) (A) (A) (A)
                 (A) (A) (A) (A) (A) (A) (A) (A) (A) (A) (A) (A)
                 (A) (A) (A) (A) (A) (A) (A) (A) (A) (A) (A) (A)
                 (A) (A) (A) (A) (A) (A) (A) (A) (A) (A) (A) (A)
                 (A) (A) (A) (A) (A) (A) (A) (A) (A) (A) (A) (A)
                 (A) (A) (A) (A) (A) (A) (A) (A) (A) (A) (A) (A)
                 (A) (A) (A) (A) (A) (A) (A) (A) (A) (A) (A) (A)
                 (A) (A) (A) (A) (A) (A) (A) (A) (A) (A) (A) (A)
                 (A) (A) (A) (A) (A) (A) (A) (A) (A) (A) (A) (A)
                 (A) (A) (A) (A) (A) (A) (A) (A) (A) (A) (A) (A)
                 (A) (A) (A) (A) (A) (A) (A) (A) (A) (A) (A) (A)
                 (A) (A) (A) (A) (A) (A) (A) (A) (A) (A) (A) (A)
                 (A) (A) (A) (A) (A) (A) (A) (A) (A) (A) (A) (A)
                 (A) (A) (A) (A)
 The electronic state is 1-A.
 Alpha  occ. eigenvalues --  -19.66946 -19.65239 -19.62574 -14.72683 -10.61317
 Alpha  occ. eigenvalues --  -10.60377 -10.60195 -10.56036 -10.55080 -10.54626
 Alpha  occ. eigenvalues --  -10.54497 -10.54434 -10.54434 -10.54314 -10.54200
 Alpha  occ. eigenvalues --  -10.54184 -10.54127 -10.53611 -10.53595 -10.53588
 Alpha  occ. eigenvalues --  -10.51414  -1.20471  -1.17567  -1.16121  -1.01171
 Alpha  occ. eigenvalues --   -0.97374  -0.96486  -0.89990  -0.87918  -0.85048
 Alpha  occ. eigenvalues --   -0.84522  -0.82664  -0.80618  -0.75390  -0.73151
 Alpha  occ. eigenvalues --   -0.70964  -0.69381  -0.69293  -0.68602  -0.64930
 Alpha  occ. eigenvalues --   -0.63239  -0.61054  -0.60160  -0.58458  -0.56614
 Alpha  occ. eigenvalues --   -0.56262  -0.55547  -0.53708  -0.52920  -0.52423
 Alpha  occ. eigenvalues --   -0.52062  -0.51844  -0.50495  -0.49721  -0.49441
 Alpha  occ. eigenvalues --   -0.48639  -0.46972  -0.46624  -0.46062  -0.45503
 Alpha  occ. eigenvalues --   -0.44642  -0.44020  -0.43802  -0.42805  -0.41919
 Alpha  occ. eigenvalues --   -0.41380  -0.40691  -0.40207  -0.39516  -0.39347
 Alpha  occ. eigenvalues --   -0.38154  -0.35750  -0.31664  -0.30947  -0.29923
 Alpha  occ. eigenvalues --   -0.28536  -0.26763
 Alpha virt. eigenvalues --    0.01432   0.01844   0.02494   0.04039   0.04707
 Alpha virt. eigenvalues --    0.06118   0.07552   0.07928   0.08522   0.09076
 Alpha virt. eigenvalues --    0.09156   0.10833   0.11421   0.11991   0.12212
 Alpha virt. eigenvalues --    0.12662   0.13018   0.13900   0.14051   0.14514
 Alpha virt. eigenvalues --    0.16217   0.16311   0.17055   0.17707   0.17720
 Alpha virt. eigenvalues --    0.18306   0.18803   0.19229   0.19451   0.20357
 Alpha virt. eigenvalues --    0.21349   0.21470   0.21973   0.22340   0.22423
 Alpha virt. eigenvalues --    0.23263   0.24103   0.24763   0.24921   0.25445
 Alpha virt. eigenvalues --    0.26019   0.26301   0.26678   0.27260   0.27667
 Alpha virt. eigenvalues --    0.28423   0.28947   0.29331   0.29486   0.30028
 Alpha virt. eigenvalues --    0.30239   0.31432   0.31519   0.32364   0.32544
 Alpha virt. eigenvalues --    0.33172   0.33365   0.34239   0.34282   0.34792
 Alpha virt. eigenvalues --    0.34940   0.35611   0.35995   0.37263   0.37412
 Alpha virt. eigenvalues --    0.37834   0.38029   0.38323   0.38595   0.39137
 Alpha virt. eigenvalues --    0.39601   0.40408   0.40736   0.41104   0.41374
 Alpha virt. eigenvalues --    0.41700   0.42143   0.42435   0.42835   0.43362
 Alpha virt. eigenvalues --    0.43657   0.43969   0.44481   0.44852   0.44959
 Alpha virt. eigenvalues --    0.45898   0.46402   0.46920   0.46980   0.47617
 Alpha virt. eigenvalues --    0.47668   0.48124   0.48582   0.48916   0.49345
 Alpha virt. eigenvalues --    0.49531   0.50079   0.50366   0.51427   0.51517
 Alpha virt. eigenvalues --    0.51869   0.52626   0.52842   0.53658   0.54248
 Alpha virt. eigenvalues --    0.54413   0.54751   0.55254   0.56330   0.56556
 Alpha virt. eigenvalues --    0.56893   0.57008   0.57201   0.57484   0.58935
 Alpha virt. eigenvalues --    0.59620   0.60988   0.61205   0.61290   0.62474
 Alpha virt. eigenvalues --    0.62958   0.63163   0.63963   0.64649   0.66015
 Alpha virt. eigenvalues --    0.66207   0.66566   0.67478   0.67979   0.68085
 Alpha virt. eigenvalues --    0.69441   0.69789   0.69972   0.70468   0.71022
 Alpha virt. eigenvalues --    0.72420   0.73338   0.73909   0.74672   0.75102
 Alpha virt. eigenvalues --    0.75264   0.76354   0.76592   0.77597   0.77759
 Alpha virt. eigenvalues --    0.78111   0.78822   0.79743   0.80424   0.80744
 Alpha virt. eigenvalues --    0.80933   0.81847   0.82628   0.83827   0.83904
 Alpha virt. eigenvalues --    0.85047   0.85664   0.85987   0.87062   0.87733
 Alpha virt. eigenvalues --    0.88619   0.89237   0.89716   0.90062   0.90298
 Alpha virt. eigenvalues --    0.91406   0.91865   0.92224   0.92635   0.93168
 Alpha virt. eigenvalues --    0.94222   0.94951   0.96029   0.97303   0.97712
 Alpha virt. eigenvalues --    0.98676   0.99962   1.00833   1.01796   1.02599
 Alpha virt. eigenvalues --    1.03636   1.04526   1.06597   1.07124   1.07383
 Alpha virt. eigenvalues --    1.08527   1.09298   1.09953   1.10438   1.11124
 Alpha virt. eigenvalues --    1.11738   1.13461   1.14140   1.14830   1.15547
 Alpha virt. eigenvalues --    1.16674   1.17557   1.18849   1.19106   1.20110
 Alpha virt. eigenvalues --    1.21006   1.21690   1.22551   1.23860   1.24370
 Alpha virt. eigenvalues --    1.25347   1.26031   1.26968   1.27596   1.28307
 Alpha virt. eigenvalues --    1.28744   1.29225   1.30036   1.30483   1.31302
 Alpha virt. eigenvalues --    1.31382   1.32393   1.33435   1.33840   1.35432
 Alpha virt. eigenvalues --    1.36311   1.37715   1.38047   1.38887   1.39264
 Alpha virt. eigenvalues --    1.40654   1.41476   1.42427   1.42921   1.44416
 Alpha virt. eigenvalues --    1.45230   1.46162   1.47212   1.47962   1.48582
 Alpha virt. eigenvalues --    1.49617   1.49957   1.50176   1.51049   1.52333
 Alpha virt. eigenvalues --    1.52885   1.53374   1.54637   1.54835   1.56443
 Alpha virt. eigenvalues --    1.56771   1.57088   1.58419   1.58618   1.60011
 Alpha virt. eigenvalues --    1.60238   1.60958   1.61247   1.62584   1.62794
 Alpha virt. eigenvalues --    1.63607   1.64006   1.64688   1.66236   1.66796
 Alpha virt. eigenvalues --    1.67555   1.67857   1.68770   1.69921   1.70797
 Alpha virt. eigenvalues --    1.71393   1.71465   1.72838   1.72935   1.73525
 Alpha virt. eigenvalues --    1.74019   1.74527   1.75175   1.75558   1.75687
 Alpha virt. eigenvalues --    1.76151   1.76398   1.78389   1.78741   1.79624
 Alpha virt. eigenvalues --    1.80150   1.80667   1.82286   1.84523   1.84686
 Alpha virt. eigenvalues --    1.85769   1.86601   1.87367   1.88501   1.89873
 Alpha virt. eigenvalues --    1.90519   1.91057   1.91587   1.92728   1.93778
 Alpha virt. eigenvalues --    1.94447   1.94825   1.95826   1.96414   1.97503
 Alpha virt. eigenvalues --    1.98543   1.99011   2.00152   2.00574   2.01807
 Alpha virt. eigenvalues --    2.02084   2.02878   2.04331   2.05347   2.06118
 Alpha virt. eigenvalues --    2.06949   2.07692   2.09281   2.09792   2.10714
 Alpha virt. eigenvalues --    2.11087   2.12420   2.14331   2.15115   2.15865
 Alpha virt. eigenvalues --    2.16450   2.16961   2.18598   2.19246   2.19724
 Alpha virt. eigenvalues --    2.20507   2.21911   2.22366   2.22522   2.23397
 Alpha virt. eigenvalues --    2.23543   2.24064   2.25288   2.26073   2.27011
 Alpha virt. eigenvalues --    2.27960   2.28383   2.29165   2.31165   2.31589
 Alpha virt. eigenvalues --    2.33218   2.34400   2.35672   2.35973   2.36988
 Alpha virt. eigenvalues --    2.38203   2.38973   2.40626   2.41699   2.42591
 Alpha virt. eigenvalues --    2.42797   2.43416   2.44435   2.46169   2.46779
 Alpha virt. eigenvalues --    2.47351   2.47645   2.48610   2.49903   2.50193
 Alpha virt. eigenvalues --    2.51247   2.51529   2.52424   2.52681   2.54350
 Alpha virt. eigenvalues --    2.55178   2.56216   2.57303   2.58363   2.59779
 Alpha virt. eigenvalues --    2.60051   2.60442   2.61061   2.61473   2.62641
 Alpha virt. eigenvalues --    2.63145   2.63548   2.64650   2.64918   2.65682
 Alpha virt. eigenvalues --    2.66331   2.66778   2.67244   2.68478   2.69151
 Alpha virt. eigenvalues --    2.69373   2.70004   2.70423   2.70581   2.71166
 Alpha virt. eigenvalues --    2.72144   2.72310   2.73562   2.73790   2.74146
 Alpha virt. eigenvalues --    2.74479   2.75531   2.76036   2.76610   2.76994
 Alpha virt. eigenvalues --    2.78049   2.78608   2.78901   2.79629   2.80121
 Alpha virt. eigenvalues --    2.80539   2.81687   2.82855   2.83964   2.84566
 Alpha virt. eigenvalues --    2.85544   2.86189   2.86817   2.86860   2.87567
 Alpha virt. eigenvalues --    2.88035   2.88565   2.89130   2.90576   2.90827
 Alpha virt. eigenvalues --    2.91464   2.92217   2.92689   2.93065   2.94014
 Alpha virt. eigenvalues --    2.95026   2.95935   2.96604   2.99095   3.00280
 Alpha virt. eigenvalues --    3.00962   3.01685   3.02459   3.02924   3.03560
 Alpha virt. eigenvalues --    3.04674   3.05326   3.05992   3.06448   3.07219
 Alpha virt. eigenvalues --    3.07749   3.08318   3.10082   3.10587   3.10897
 Alpha virt. eigenvalues --    3.11405   3.13008   3.14117   3.15127   3.15809
 Alpha virt. eigenvalues --    3.16383   3.16539   3.17599   3.17837   3.18918
 Alpha virt. eigenvalues --    3.19280   3.19990   3.20319   3.21136   3.21946
 Alpha virt. eigenvalues --    3.22385   3.23031   3.23808   3.24262   3.24600
 Alpha virt. eigenvalues --    3.24985   3.25725   3.26961   3.27143   3.28253
 Alpha virt. eigenvalues --    3.28961   3.29656   3.30168   3.31065   3.31460
 Alpha virt. eigenvalues --    3.31904   3.32218   3.32811   3.33780   3.34228
 Alpha virt. eigenvalues --    3.35693   3.36153   3.36612   3.37794   3.37985
 Alpha virt. eigenvalues --    3.39074   3.39261   3.39647   3.40144   3.41644
 Alpha virt. eigenvalues --    3.41820   3.42440   3.43098   3.43620   3.44601
 Alpha virt. eigenvalues --    3.45589   3.45724   3.46310   3.46943   3.47247
 Alpha virt. eigenvalues --    3.47904   3.48933   3.49409   3.49746   3.51449
 Alpha virt. eigenvalues --    3.52240   3.53313   3.53618   3.53898   3.54942
 Alpha virt. eigenvalues --    3.55206   3.56104   3.56310   3.56895   3.59101
 Alpha virt. eigenvalues --    3.59628   3.60698   3.61338   3.62637   3.65903
 Alpha virt. eigenvalues --    3.65970   3.66285   3.67323   3.68391   3.69617
 Alpha virt. eigenvalues --    3.71109   3.71976   3.72090   3.73373   3.74005
 Alpha virt. eigenvalues --    3.75278   3.76347   3.77251   3.78936   3.80915
 Alpha virt. eigenvalues --    3.81787   3.82865   3.83128   3.86416   3.86664
 Alpha virt. eigenvalues --    3.89151   3.90882   3.91883   3.92478   3.94440
 Alpha virt. eigenvalues --    3.95040   3.96303   3.96943   3.97997   3.99457
 Alpha virt. eigenvalues --    3.99925   4.02561   4.03768   4.04001   4.05088
 Alpha virt. eigenvalues --    4.06189   4.06931   4.08268   4.08746   4.10823
 Alpha virt. eigenvalues --    4.12203   4.12611   4.13407   4.14316   4.15137
 Alpha virt. eigenvalues --    4.16164   4.17065   4.18101   4.18477   4.19106
 Alpha virt. eigenvalues --    4.19633   4.21044   4.21584   4.22639   4.23134
 Alpha virt. eigenvalues --    4.24237   4.24576   4.27377   4.29827   4.30299
 Alpha virt. eigenvalues --    4.31763   4.31872   4.33946   4.35064   4.36482
 Alpha virt. eigenvalues --    4.37505   4.39947   4.40660   4.44398   4.45200
 Alpha virt. eigenvalues --    4.46575   4.48037   4.50761   4.52057   4.54125
 Alpha virt. eigenvalues --    4.54284   4.57391   4.58164   4.62205   4.63832
 Alpha virt. eigenvalues --    4.65448   4.65929   4.66089   4.67769   4.68942
 Alpha virt. eigenvalues --    4.71110   4.72520   4.76119   4.76671   4.81250
 Alpha virt. eigenvalues --    4.82134   4.84205   4.85510   4.86327   4.88083
 Alpha virt. eigenvalues --    4.88619   4.90762   4.91421   4.95554   4.96700
 Alpha virt. eigenvalues --    5.01027   5.04636   5.06809   5.08704   5.09843
 Alpha virt. eigenvalues --    5.14054   5.14914   5.20156   5.20482   5.23773
 Alpha virt. eigenvalues --    5.24025   5.27202   5.29432   5.29964   5.31093
 Alpha virt. eigenvalues --    5.32545   5.35237   5.35826   5.38083   5.41850
 Alpha virt. eigenvalues --    5.43647   5.44057   5.44763   5.47410   5.51815
 Alpha virt. eigenvalues --    5.52128   5.52865   5.59820   5.60501   5.63266
 Alpha virt. eigenvalues --    5.66725   5.68244   5.81715   5.84631   5.86068
 Alpha virt. eigenvalues --    5.87797   5.89524   5.98591   6.02441   6.15905
 Alpha virt. eigenvalues --    6.28526   6.34035   6.38623   6.39432   6.43914
 Alpha virt. eigenvalues --    6.51438   6.53679   6.65267   6.75193   6.76828
 Alpha virt. eigenvalues --    6.77225   6.81545   6.81983   6.96159   6.99198
 Alpha virt. eigenvalues --    7.02975   7.20399   7.21288   7.33875  22.21602
 Alpha virt. eigenvalues --   22.30348  22.57397  22.63189  22.69645  22.70699
 Alpha virt. eigenvalues --   22.75326  22.78380  22.86700  22.88106  22.90152
 Alpha virt. eigenvalues --   22.91061  22.96260  22.99433  23.13027  23.36376
 Alpha virt. eigenvalues --   23.53534  32.62168  43.98738  44.20756  44.21617
          Condensed to atoms (all electrons):
               1          2          3          4          5          6
     1  C    5.248039   0.289882   0.006522  -0.055740   0.022744   0.382029
     2  C    0.289882   5.272781   0.449957  -0.072862  -0.056582   0.034573
     3  C    0.006522   0.449957   4.976334   0.449142  -0.009707  -0.095641
     4  C   -0.055740  -0.072862   0.449142   5.172721   0.511858  -0.039629
     5  C    0.022744  -0.056582  -0.009707   0.511858   4.775104   0.314857
     6  C    0.382029   0.034573  -0.095641  -0.039629   0.314857   5.117937
     7  O    0.011378  -0.002285   0.000170  -0.059602   0.361489  -0.103777
     8  O   -0.088352   0.008297   0.001644  -0.002552  -0.056691   0.288501
     9  C    0.007233  -0.074153   0.213540  -0.062328   0.012493  -0.005540
    10  C    0.003517  -0.020863  -0.006757  -0.011571   0.001373   0.000182
    11  N   -0.000038   0.001564   0.009009  -0.000003  -0.000021  -0.000003
    12  H    0.372088   0.008652   0.000241   0.002993   0.000383  -0.028895
    13  H   -0.018251   0.392763  -0.035560   0.007284  -0.001105   0.002119
    14  H   -0.006193   0.012699  -0.051751   0.397047  -0.030325   0.020976
    15  H    0.005683  -0.001568   0.000759   0.007444  -0.019210  -0.038527
    16  H   -0.007974   0.006188  -0.000727  -0.000095   0.006404  -0.037072
    17  H    0.000470  -0.000425  -0.057809   0.004189  -0.000606   0.000227
    18  H   -0.000857   0.002453  -0.039531  -0.000825  -0.000487   0.000111
    19  H    0.000188  -0.013578   0.011528   0.008084  -0.000613  -0.000179
    20  H   -0.000668   0.010362   0.014714  -0.010863   0.000359   0.000061
    21  H    0.000007  -0.000400   0.000642   0.000523  -0.000022   0.000000
    22  C   -0.000008   0.000446  -0.000429  -0.000158  -0.000016   0.000000
    23  H   -0.000005   0.000114   0.000285  -0.000128  -0.000003   0.000001
    24  O   -0.000000   0.000002   0.000001  -0.000001   0.000000   0.000000
    25  H   -0.000000  -0.000000  -0.000004   0.000000   0.000000   0.000000
    26  C    0.000002  -0.000308  -0.000398   0.000099  -0.000000  -0.000000
    27  H    0.000000   0.000119   0.000179  -0.000003  -0.000003  -0.000000
    28  C   -0.000000  -0.000048  -0.000044   0.000002   0.000000   0.000000
    29  H    0.000000   0.000001   0.000001  -0.000000  -0.000000  -0.000000
    30  H   -0.000003   0.000112  -0.000047  -0.000010   0.000000   0.000000
    31  H   -0.000000   0.000002   0.000002  -0.000000  -0.000000   0.000000
    32  C   -0.000001   0.000035   0.000020  -0.000007   0.000000   0.000000
    33  C    0.000000  -0.000003   0.000000  -0.000000   0.000000   0.000000
    34  C   -0.000000   0.000000   0.000000  -0.000000  -0.000000   0.000000
    35  C    0.000000   0.000000  -0.000000  -0.000000   0.000000   0.000000
    36  H   -0.000000   0.000002   0.000005   0.000000  -0.000000  -0.000000
    37  C   -0.000000  -0.000000  -0.000000   0.000000  -0.000000   0.000000
    38  H   -0.000000  -0.000000   0.000000   0.000000   0.000000  -0.000000
    39  C   -0.000000  -0.000000   0.000000   0.000000   0.000000  -0.000000
    40  H    0.000000   0.000000   0.000000  -0.000000   0.000000  -0.000000
    41  H   -0.000000   0.000000   0.000000   0.000000  -0.000000   0.000000
    42  H   -0.000000   0.000000  -0.000000   0.000000   0.000000   0.000000
               7          8          9         10         11         12
     1  C    0.011378  -0.088352   0.007233   0.003517  -0.000038   0.372088
     2  C   -0.002285   0.008297  -0.074153  -0.020863   0.001564   0.008652
     3  C    0.000170   0.001644   0.213540  -0.006757   0.009009   0.000241
     4  C   -0.059602  -0.002552  -0.062328  -0.011571  -0.000003   0.002993
     5  C    0.361489  -0.056691   0.012493   0.001373  -0.000021   0.000383
     6  C   -0.103777   0.288501  -0.005540   0.000182  -0.000003  -0.028895
     7  O    7.911728  -0.003984  -0.000197   0.000044   0.000000  -0.000073
     8  O   -0.003984   8.011758   0.000005   0.000001   0.000000  -0.003030
     9  C   -0.000197   0.000005   5.375221   0.178706  -0.031601  -0.000052
    10  C    0.000044   0.000001   0.178706   5.208994   0.202951  -0.000030
    11  N    0.000000   0.000000  -0.031601   0.202951   6.895898  -0.000001
    12  H   -0.000073  -0.003030  -0.000052  -0.000030  -0.000001   0.509284
    13  H    0.000019  -0.000174   0.005202  -0.003687   0.000194  -0.002807
    14  H    0.005311  -0.000145  -0.000343  -0.002445  -0.000095   0.000051
    15  H    0.312052   0.013482   0.000048  -0.000003   0.000000  -0.000002
    16  H   -0.000301   0.314904  -0.000001  -0.000001  -0.000000   0.003701
    17  H    0.000005  -0.000001   0.460215  -0.065184   0.009134  -0.000057
    18  H   -0.000022  -0.000000   0.435248  -0.056712  -0.001550   0.000019
    19  H    0.000001   0.000002  -0.046574   0.424988  -0.048704   0.000050
    20  H    0.000002   0.000000  -0.043684   0.406441  -0.057082  -0.000006
    21  H    0.000000   0.000000  -0.008576  -0.037715   0.353739   0.000000
    22  C    0.000000   0.000000   0.003492  -0.061573   0.228548  -0.000000
    23  H   -0.000000  -0.000000   0.000982  -0.022043  -0.068303  -0.000000
    24  O   -0.000000   0.000000  -0.000311   0.005850  -0.060604  -0.000000
    25  H    0.000000  -0.000000   0.000042  -0.000647   0.009417   0.000000
    26  C   -0.000000  -0.000000   0.001156   0.021593  -0.077131   0.000000
    27  H    0.000000   0.000000   0.000450   0.001497  -0.001114  -0.000000
    28  C   -0.000000  -0.000000  -0.000573   0.001989  -0.034262  -0.000000
    29  H    0.000000   0.000000  -0.000008  -0.000273   0.000969   0.000000
    30  H    0.000000  -0.000000   0.000411  -0.002493   0.013919  -0.000000
    31  H    0.000000  -0.000000   0.000022   0.000406   0.004580  -0.000000
    32  C    0.000000   0.000000   0.000177  -0.004465   0.022023  -0.000000
    33  C   -0.000000  -0.000000  -0.000011   0.000004   0.000234   0.000000
    34  C   -0.000000  -0.000000   0.000009   0.000361  -0.000768  -0.000000
    35  C    0.000000   0.000000   0.000001  -0.000066  -0.000096  -0.000000
    36  H    0.000000   0.000000   0.000004   0.000059  -0.000022  -0.000000
    37  C   -0.000000   0.000000  -0.000000   0.000009  -0.000168  -0.000000
    38  H    0.000000   0.000000  -0.000000   0.000019   0.000048   0.000000
    39  C   -0.000000  -0.000000  -0.000000   0.000002   0.000025   0.000000
    40  H    0.000000   0.000000  -0.000000  -0.000000  -0.000001  -0.000000
    41  H    0.000000   0.000000   0.000000  -0.000000  -0.000001  -0.000000
    42  H   -0.000000  -0.000000  -0.000000  -0.000000  -0.000000   0.000000
              13         14         15         16         17         18
     1  C   -0.018251  -0.006193   0.005683  -0.007974   0.000470  -0.000857
     2  C    0.392763   0.012699  -0.001568   0.006188  -0.000425   0.002453
     3  C   -0.035560  -0.051751   0.000759  -0.000727  -0.057809  -0.039531
     4  C    0.007284   0.397047   0.007444  -0.000095   0.004189  -0.000825
     5  C   -0.001105  -0.030325  -0.019210   0.006404  -0.000606  -0.000487
     6  C    0.002119   0.020976  -0.038527  -0.037072   0.000227   0.000111
     7  O    0.000019   0.005311   0.312052  -0.000301   0.000005  -0.000022
     8  O   -0.000174  -0.000145   0.013482   0.314904  -0.000001  -0.000000
     9  C    0.005202  -0.000343   0.000048  -0.000001   0.460215   0.435248
    10  C   -0.003687  -0.002445  -0.000003  -0.000001  -0.065184  -0.056712
    11  N    0.000194  -0.000095   0.000000  -0.000000   0.009134  -0.001550
    12  H   -0.002807   0.000051  -0.000002   0.003701  -0.000057   0.000019
    13  H    0.500581  -0.000182  -0.000005  -0.000024   0.000456   0.000245
    14  H   -0.000182   0.499550  -0.000874   0.000043   0.000304   0.000643
    15  H   -0.000005  -0.000874   0.380357  -0.001131  -0.000001   0.000001
    16  H   -0.000024   0.000043  -0.001131   0.384384  -0.000000   0.000000
    17  H    0.000456   0.000304  -0.000001  -0.000000   0.482902  -0.012274
    18  H    0.000245   0.000643   0.000001   0.000000  -0.012274   0.505278
    19  H    0.000287   0.000113  -0.000000   0.000000  -0.002176   0.005443
    20  H    0.000202   0.000853   0.000001  -0.000000   0.006308  -0.003981
    21  H   -0.000003   0.000025  -0.000000   0.000000  -0.000280   0.003503
    22  C    0.000021   0.000010  -0.000000  -0.000000   0.001324  -0.000273
    23  H    0.000006   0.000011   0.000000  -0.000000   0.000219  -0.000217
    24  O   -0.000000  -0.000000   0.000000  -0.000000   0.000039  -0.000066
    25  H   -0.000000   0.000000  -0.000000   0.000000  -0.000003   0.000001
    26  C   -0.000015  -0.000003  -0.000000   0.000000  -0.000592   0.000004
    27  H    0.000013  -0.000000  -0.000000  -0.000000   0.000186  -0.000025
    28  C   -0.000003  -0.000000   0.000000   0.000000  -0.000720   0.000078
    29  H    0.000000   0.000000   0.000000   0.000000   0.000013  -0.000000
    30  H    0.000067   0.000000   0.000000  -0.000000   0.000701  -0.000016
    31  H   -0.000000   0.000000  -0.000000  -0.000000   0.000081  -0.000019
    32  C    0.000007   0.000000   0.000000  -0.000000   0.000038   0.000016
    33  C   -0.000000   0.000000   0.000000   0.000000   0.000003  -0.000000
    34  C   -0.000000   0.000000  -0.000000  -0.000000   0.000003  -0.000001
    35  C    0.000000   0.000000   0.000000  -0.000000   0.000000  -0.000000
    36  H    0.000000   0.000000  -0.000000  -0.000000   0.000001   0.000000
    37  C   -0.000000   0.000000  -0.000000   0.000000   0.000000  -0.000000
    38  H    0.000000  -0.000000   0.000000   0.000000  -0.000000   0.000000
    39  C    0.000000   0.000000   0.000000   0.000000  -0.000000   0.000000
    40  H    0.000000  -0.000000   0.000000   0.000000  -0.000000  -0.000000
    41  H    0.000000   0.000000  -0.000000  -0.000000   0.000000  -0.000000
    42  H    0.000000   0.000000   0.000000   0.000000   0.000000   0.000000
              19         20         21         22         23         24
     1  C    0.000188  -0.000668   0.000007  -0.000008  -0.000005  -0.000000
     2  C   -0.013578   0.010362  -0.000400   0.000446   0.000114   0.000002
     3  C    0.011528   0.014714   0.000642  -0.000429   0.000285   0.000001
     4  C    0.008084  -0.010863   0.000523  -0.000158  -0.000128  -0.000001
     5  C   -0.000613   0.000359  -0.000022  -0.000016  -0.000003   0.000000
     6  C   -0.000179   0.000061   0.000000   0.000000   0.000001   0.000000
     7  O    0.000001   0.000002   0.000000   0.000000  -0.000000  -0.000000
     8  O    0.000002   0.000000   0.000000   0.000000  -0.000000   0.000000
     9  C   -0.046574  -0.043684  -0.008576   0.003492   0.000982  -0.000311
    10  C    0.424988   0.406441  -0.037715  -0.061573  -0.022043   0.005850
    11  N   -0.048704  -0.057082   0.353739   0.228548  -0.068303  -0.060604
    12  H    0.000050  -0.000006   0.000000  -0.000000  -0.000000  -0.000000
    13  H    0.000287   0.000202  -0.000003   0.000021   0.000006  -0.000000
    14  H    0.000113   0.000853   0.000025   0.000010   0.000011  -0.000000
    15  H   -0.000000   0.000001  -0.000000  -0.000000   0.000000   0.000000
    16  H    0.000000  -0.000000   0.000000  -0.000000  -0.000000  -0.000000
    17  H   -0.002176   0.006308  -0.000280   0.001324   0.000219   0.000039
    18  H    0.005443  -0.003981   0.003503  -0.000273  -0.000217  -0.000066
    19  H    0.556555  -0.044180   0.008875  -0.007462  -0.007370  -0.000184
    20  H   -0.044180   0.575381  -0.006602   0.009385   0.015367   0.000264
    21  H    0.008875  -0.006602   0.487100  -0.027314  -0.000727   0.000489
    22  C   -0.007462   0.009385  -0.027314   5.154651   0.550536   0.234604
    23  H   -0.007370   0.015367  -0.000727   0.550536   0.552715  -0.034891
    24  O   -0.000184   0.000264   0.000489   0.234604  -0.034891   8.045112
    25  H    0.000016  -0.000105  -0.000006  -0.044132  -0.002139   0.311392
    26  C    0.010534  -0.012278   0.009437  -0.067081  -0.139770   0.018960
    27  H   -0.003202   0.000906  -0.000580  -0.051558   0.007484   0.005140
    28  C    0.001677  -0.000630   0.001274  -0.022019  -0.000902  -0.049149
    29  H   -0.000027   0.000019   0.000021   0.012700  -0.000050   0.000954
    30  H   -0.001266   0.000390  -0.000991   0.000844   0.000743   0.000207
    31  H   -0.000291   0.000089  -0.000700  -0.022931   0.001654   0.019682
    32  C   -0.001490   0.001238  -0.001551   0.063383  -0.004806  -0.039046
    33  C    0.000339   0.000193   0.000028   0.000146  -0.006173  -0.000343
    34  C   -0.000141   0.000024  -0.000235  -0.031533   0.007363   0.017495
    35  C   -0.000066   0.000025  -0.000004   0.005703   0.002547   0.000161
    36  H    0.000137   0.000073   0.000005  -0.004741   0.000705   0.000090
    37  C   -0.000007   0.000003   0.000009   0.001114   0.001076   0.000785
    38  H    0.000005  -0.000002   0.000008  -0.000548  -0.000371  -0.003277
    39  C    0.000004  -0.000001  -0.000000  -0.001454  -0.000536   0.000124
    40  H   -0.000000   0.000000   0.000000   0.000062   0.000015   0.000003
    41  H   -0.000000   0.000000   0.000000   0.000060   0.000008  -0.000015
    42  H   -0.000000   0.000000  -0.000000   0.000002  -0.000000  -0.000000
              25         26         27         28         29         30
     1  C   -0.000000   0.000002   0.000000  -0.000000   0.000000  -0.000003
     2  C   -0.000000  -0.000308   0.000119  -0.000048   0.000001   0.000112
     3  C   -0.000004  -0.000398   0.000179  -0.000044   0.000001  -0.000047
     4  C    0.000000   0.000099  -0.000003   0.000002  -0.000000  -0.000010
     5  C    0.000000  -0.000000  -0.000003   0.000000  -0.000000   0.000000
     6  C    0.000000  -0.000000  -0.000000   0.000000  -0.000000   0.000000
     7  O    0.000000  -0.000000   0.000000  -0.000000   0.000000   0.000000
     8  O   -0.000000  -0.000000   0.000000  -0.000000   0.000000  -0.000000
     9  C    0.000042   0.001156   0.000450  -0.000573  -0.000008   0.000411
    10  C   -0.000647   0.021593   0.001497   0.001989  -0.000273  -0.002493
    11  N    0.009417  -0.077131  -0.001114  -0.034262   0.000969   0.013919
    12  H    0.000000   0.000000  -0.000000  -0.000000   0.000000  -0.000000
    13  H   -0.000000  -0.000015   0.000013  -0.000003   0.000000   0.000067
    14  H    0.000000  -0.000003  -0.000000  -0.000000   0.000000   0.000000
    15  H   -0.000000  -0.000000  -0.000000   0.000000   0.000000   0.000000
    16  H    0.000000   0.000000  -0.000000   0.000000   0.000000  -0.000000
    17  H   -0.000003  -0.000592   0.000186  -0.000720   0.000013   0.000701
    18  H    0.000001   0.000004  -0.000025   0.000078  -0.000000  -0.000016
    19  H    0.000016   0.010534  -0.003202   0.001677  -0.000027  -0.001266
    20  H   -0.000105  -0.012278   0.000906  -0.000630   0.000019   0.000390
    21  H   -0.000006   0.009437  -0.000580   0.001274   0.000021  -0.000991
    22  C   -0.044132  -0.067081  -0.051558  -0.022019   0.012700   0.000844
    23  H   -0.002139  -0.139770   0.007484  -0.000902  -0.000050   0.000743
    24  O    0.311392   0.018960   0.005140  -0.049149   0.000954   0.000207
    25  H    0.379551   0.010858   0.000038  -0.002435  -0.000161  -0.000252
    26  C    0.010858   6.174453   0.473012   0.137029  -0.080670  -0.063158
    27  H    0.000038   0.473012   0.542932  -0.050865  -0.003898  -0.006788
    28  C   -0.002435   0.137029  -0.050865   5.231106   0.435771   0.418879
[...]
    31  H   -0.000000   0.000000   0.000000  -0.000000   0.000034  -0.000003
    32  C    0.000002   0.000001  -0.000000   0.000000   0.000023   0.000026
    33  C   -0.000000  -0.000000   0.000000  -0.000000   0.000005  -0.000003
    34  C   -0.000000   0.000000   0.000000   0.000000   0.000002  -0.000000
    35  C    0.000000   0.000000   0.000000  -0.000000   0.000000  -0.000000
    36  H    0.000000   0.000000  -0.000000   0.000000   0.000001  -0.000000
    37  C   -0.000000   0.000000   0.000000  -0.000000  -0.000000   0.000000
    38  H    0.000000   0.000000  -0.000000   0.000000  -0.000000   0.000000
    39  C   -0.000000   0.000000  -0.000000  -0.000000   0.000000  -0.000000
    40  H    0.000000  -0.000000  -0.000000   0.000000  -0.000000   0.000000
    41  H   -0.000000   0.000000  -0.000000  -0.000000   0.000000  -0.000000
    42  H    0.000000   0.000000  -0.000000   0.000000   0.000000  -0.000000
              19         20         21         22         23         24
     1  C   -0.000018  -0.000459   0.000001   0.000016  -0.000000  -0.000000
     2  C   -0.008974   0.008452  -0.000264   0.000397   0.000015   0.000001
     3  C    0.004944   0.016203   0.000350   0.000242   0.000448  -0.000028
     4  C    0.007770  -0.012540   0.000518  -0.000345  -0.000061   0.000000
     5  C   -0.000990   0.001511  -0.000036   0.000008   0.000002   0.000000
     6  C   -0.000058  -0.000027   0.000002  -0.000005  -0.000000   0.000000
     7  O    0.000001   0.000008   0.000000   0.000000  -0.000000  -0.000000
     8  O    0.000001   0.000001   0.000000   0.000000  -0.000000   0.000000
     9  C   -0.043012  -0.040295  -0.006729   0.003108   0.000393  -0.000136
    10  C    0.433547   0.404194  -0.042290  -0.048599  -0.014842   0.005888
    11  N   -0.053724  -0.058088   0.362575   0.241424  -0.062512  -0.064374
    12  H    0.000026  -0.000002   0.000000  -0.000000   0.000000  -0.000000
    13  H    0.000772   0.000031   0.000009  -0.000010   0.000000  -0.000000
    14  H    0.000137   0.000577   0.000040   0.000015   0.000021  -0.000000
    15  H   -0.000000   0.000001  -0.000000   0.000000   0.000000   0.000000
    16  H    0.000000  -0.000000   0.000000  -0.000000   0.000000  -0.000000
    17  H   -0.004847   0.006558  -0.000578   0.000756   0.000213   0.000001
    18  H    0.006458  -0.004829   0.004449   0.000017  -0.000184  -0.000065
    19  H    0.549479  -0.049257   0.007971  -0.023272  -0.002275   0.000078
    20  H   -0.049257   0.575880  -0.004965   0.027143   0.012713  -0.000443
    21  H    0.007971  -0.004965   0.495701  -0.044634  -0.004887   0.003567
    22  C   -0.023272   0.027143  -0.044634   5.235297   0.565588   0.234656
    23  H   -0.002275   0.012713  -0.004887   0.565588   0.551114  -0.048949
    24  O    0.000078  -0.000443   0.003567   0.234656  -0.048949   8.040007
    25  H   -0.000046   0.000018  -0.000240  -0.030156  -0.006973   0.304617
    26  C    0.025717  -0.026424   0.018944  -0.115217  -0.146673   0.005614
    27  H   -0.004472  -0.000176  -0.001199  -0.058141   0.004900   0.004947
    28  C   -0.004014   0.000584  -0.000783  -0.022206   0.001038  -0.039007
    29  H   -0.000250   0.000063   0.000014   0.014223  -0.000017   0.000403
    30  H   -0.003046   0.000833  -0.000001  -0.005015   0.000102  -0.000741
    31  H   -0.000131   0.000066  -0.000627  -0.019284   0.001279   0.016311
    32  C    0.002372  -0.000673  -0.000113  -0.010935  -0.025307  -0.023865
    33  C   -0.000404   0.000816  -0.000056   0.015811   0.003791  -0.001284
    34  C   -0.000075   0.000091  -0.000472  -0.018799   0.012473   0.029661
    35  C   -0.000004   0.000013   0.000005   0.004534   0.000088   0.000244
    36  H   -0.000048   0.000404  -0.000010  -0.002659   0.002007   0.000043
    37  C    0.000005  -0.000001   0.000012   0.002716  -0.000120   0.000008
    38  H    0.000001  -0.000002  -0.000006  -0.002681  -0.000113   0.000039
    39  C   -0.000003   0.000004  -0.000003  -0.001073   0.000322   0.000257
    40  H    0.000000  -0.000001   0.000000   0.000005  -0.000023   0.000005
    41  H    0.000000   0.000000   0.000000   0.000058  -0.000002  -0.000066
    42  H   -0.000000   0.000000  -0.000000   0.000004   0.000003  -0.000000
              25         26         27         28         29         30
     1  C   -0.000000  -0.000020  -0.000002   0.000008  -0.000000  -0.000003
     2  C    0.000000  -0.000317   0.000031  -0.000011   0.000002   0.000241
     3  C   -0.000002  -0.000751   0.000353  -0.000034  -0.000001  -0.000120
     4  C   -0.000000   0.000270  -0.000013  -0.000018  -0.000000  -0.000009
     5  C    0.000000  -0.000014   0.000000   0.000001   0.000000   0.000000
     6  C    0.000000   0.000003  -0.000001   0.000000   0.000000   0.000000
     7  O    0.000000  -0.000000   0.000000  -0.000000   0.000000   0.000000
     8  O   -0.000000   0.000000  -0.000000  -0.000000   0.000000   0.000000
     9  C    0.000057   0.002489   0.000884  -0.001327   0.000032  -0.000343
    10  C   -0.000886   0.026982  -0.001991  -0.000359  -0.000543  -0.001699
    11  N    0.010110  -0.087577   0.000217  -0.003360   0.001224   0.004943
    12  H    0.000000   0.000000  -0.000000  -0.000000   0.000000  -0.000000
    13  H    0.000000   0.000005  -0.000003   0.000011   0.000000   0.000095
    14  H    0.000000  -0.000005   0.000000  -0.000000   0.000000   0.000000
    15  H   -0.000000  -0.000000   0.000000   0.000000   0.000000  -0.000000
    16  H    0.000000   0.000000  -0.000000   0.000000   0.000000  -0.000000
    17  H    0.000000  -0.000838  -0.000027  -0.000153   0.000013   0.000757
    18  H   -0.000002   0.000204   0.000009  -0.000051  -0.000001  -0.000032
    19  H   -0.000046   0.025717  -0.004472  -0.004014  -0.000250  -0.003046
    20  H    0.000018  -0.026424  -0.000176   0.000584   0.000063   0.000833
    21  H   -0.000240   0.018944  -0.001199  -0.000783   0.000014  -0.000001
    22  C   -0.030156  -0.115217  -0.058141  -0.022206   0.014223  -0.005015
    23  H   -0.006973  -0.146673   0.004900   0.001038  -0.000017   0.000102
    24  O    0.304617   0.005614   0.004947  -0.039007   0.000403  -0.000741
    25  H    0.392455  -0.013541  -0.000174   0.002091  -0.000039  -0.000025
    26  C   -0.013541   6.033181   0.451229   0.208957  -0.092934  -0.049217
    27  H   -0.000174   0.451229   0.538125  -0.043726  -0.004525  -0.007266
    28  C    0.002091   0.208957  -0.043726   5.151629   0.447607   0.412968
    29  H   -0.000039  -0.092934  -0.004525   0.447607   0.514849  -0.021359
    30  H   -0.000025  -0.049217  -0.007266   0.412968  -0.021359   0.516016
    31  H   -0.000717   0.022584   0.008365   0.381292  -0.029740  -0.019305
    32  C    0.023430  -0.012343  -0.065210  -0.001531   0.019881   0.020498
    33  C   -0.002568  -0.068181  -0.014301   0.007193   0.005569  -0.000789
    34  C   -0.008314  -0.002855   0.018984  -0.059106  -0.013990   0.000226
    35  C    0.000757  -0.004456  -0.000059   0.000342  -0.000436   0.000042
    36  H   -0.000070   0.011731  -0.000330   0.000638   0.000092  -0.000013
    37  C    0.001232   0.004833  -0.000753   0.002385  -0.001286  -0.000012
    38  H    0.000106   0.006486   0.000262  -0.005046  -0.001572   0.000300
    39  C   -0.000876   0.004564   0.000335  -0.001383   0.000166  -0.000007
    40  H    0.000009  -0.000354  -0.000087   0.000027  -0.000001  -0.000000
    41  H    0.000022  -0.000596  -0.000005   0.000233   0.000028   0.000000
    42  H   -0.000009   0.000062  -0.000001  -0.000009   0.000002   0.000000
              31         32         33         34         35         36
     1  C   -0.000000  -0.000000   0.000000   0.000000   0.000000  -0.000000
     2  C   -0.000000   0.000007   0.000001  -0.000000   0.000000   0.000001
     3  C    0.000015   0.000041   0.000002   0.000003   0.000000   0.000008
     4  C   -0.000000   0.000010  -0.000003  -0.000000  -0.000000  -0.000000
     5  C   -0.000000  -0.000000   0.000000  -0.000000   0.000000   0.000000
     6  C   -0.000000  -0.000000  -0.000000  -0.000000  -0.000000  -0.000000
     7  O    0.000000   0.000000   0.000000  -0.000000   0.000000  -0.000000
     8  O   -0.000000   0.000000  -0.000000  -0.000000   0.000000   0.000000
     9  C    0.000068  -0.000391   0.000012  -0.000012  -0.000000   0.000001
    10  C    0.000627  -0.000826   0.000110   0.000316   0.000013  -0.000012
    11  N    0.002925   0.014728  -0.000574  -0.000958  -0.000025  -0.000166
    12  H    0.000000   0.000000  -0.000000   0.000000  -0.000000   0.000000
    13  H   -0.000000   0.000002  -0.000000  -0.000000   0.000000   0.000000
    14  H    0.000000   0.000001  -0.000000   0.000000   0.000000   0.000000
    15  H    0.000000  -0.000000   0.000000   0.000000   0.000000  -0.000000
    16  H   -0.000000   0.000000  -0.000000   0.000000  -0.000000   0.000000
    17  H    0.000034   0.000023   0.000005   0.000002   0.000000   0.000001
    18  H   -0.000003   0.000026  -0.000003  -0.000000  -0.000000  -0.000000
    19  H   -0.000131   0.002372  -0.000404  -0.000075  -0.000004  -0.000048
    20  H    0.000066  -0.000673   0.000816   0.000091   0.000013   0.000404
    21  H   -0.000627  -0.000113  -0.000056  -0.000472   0.000005  -0.000010
    22  C   -0.019284  -0.010935   0.015811  -0.018799   0.004534  -0.002659
    23  H    0.001279  -0.025307   0.003791   0.012473   0.000088   0.002007
    24  O    0.016311  -0.023865  -0.001284   0.029661   0.000244   0.000043
    25  H   -0.000717   0.023430  -0.002568  -0.008314   0.000757  -0.000070
    26  C    0.022584  -0.012343  -0.068181  -0.002855  -0.004456   0.011731
    27  H    0.008365  -0.065210  -0.014301   0.018984  -0.000059  -0.000330
    28  C    0.381292  -0.001531   0.007193  -0.059106   0.000342   0.000638
    29  H   -0.029740   0.019881   0.005569  -0.013990  -0.000436   0.000092
    30  H   -0.019305   0.020498  -0.000789   0.000226   0.000042  -0.000013
    31  H    0.515155  -0.053315  -0.001687   0.020996  -0.000104  -0.000006
    32  C   -0.053315   5.612528   0.420108   0.211122  -0.008793  -0.057411
    33  C   -0.001687   0.420108   5.054561  -0.015951   0.496005   0.412129
    34  C    0.020996   0.211122  -0.015951   5.304664  -0.072520   0.006798
    35  C   -0.000104  -0.008793   0.496005  -0.072520   4.906087  -0.026928
    36  H   -0.000006  -0.057411   0.412129   0.006798  -0.026928   0.499802
    37  C    0.001572  -0.047218  -0.058446   0.491718  -0.030522  -0.001366
    38  H   -0.001388  -0.043705   0.001811   0.409453   0.000077  -0.000225
    39  C    0.000173  -0.093618  -0.020979  -0.011585   0.494678   0.005005
    40  H   -0.000002   0.007908  -0.036842  -0.001364   0.413408  -0.004273
    41  H   -0.000057   0.008981   0.000070  -0.035712   0.004323   0.000068
    42  H    0.000000  -0.000197   0.004447   0.005302  -0.034415  -0.000252
              37         38         39         40         41         42
     1  C   -0.000000  -0.000000   0.000000   0.000000  -0.000000  -0.000000
     2  C   -0.000000  -0.000000   0.000000  -0.000000   0.000000   0.000000
     3  C    0.000000   0.000000  -0.000000  -0.000000   0.000000  -0.000000
     4  C    0.000000   0.000000  -0.000000   0.000000   0.000000   0.000000
     5  C   -0.000000  -0.000000   0.000000  -0.000000  -0.000000   0.000000
     6  C   -0.000000   0.000000  -0.000000  -0.000000   0.000000   0.000000
     7  O    0.000000  -0.000000  -0.000000   0.000000   0.000000  -0.000000
     8  O    0.000000   0.000000  -0.000000  -0.000000   0.000000  -0.000000
     9  C   -0.000000  -0.000000   0.000000  -0.000000   0.000000  -0.000000
    10  C    0.000015   0.000029  -0.000006   0.000001   0.000000  -0.000000
    11  N   -0.000069   0.000029  -0.000001   0.000000  -0.000001  -0.000000
    12  H   -0.000000   0.000000   0.000000   0.000000  -0.000000  -0.000000
    13  H   -0.000000   0.000000  -0.000000   0.000000  -0.000000   0.000000
    14  H    0.000000   0.000000   0.000000  -0.000000   0.000000   0.000000
    15  H    0.000000  -0.000000  -0.000000  -0.000000  -0.000000  -0.000000
    16  H   -0.000000   0.000000  -0.000000   0.000000  -0.000000   0.000000
    17  H   -0.000000  -0.000000   0.000000  -0.000000   0.000000   0.000000
    18  H    0.000000   0.000000  -0.000000   0.000000  -0.000000  -0.000000
    19  H    0.000005   0.000001  -0.000003   0.000000   0.000000  -0.000000
    20  H   -0.000001  -0.000002   0.000004  -0.000001   0.000000   0.000000
    21  H    0.000012  -0.000006  -0.000003   0.000000   0.000000  -0.000000
    22  C    0.002716  -0.002681  -0.001073   0.000005   0.000058   0.000004
    23  H   -0.000120  -0.000113   0.000322  -0.000023  -0.000002   0.000003
    24  O    0.000008   0.000039   0.000257   0.000005  -0.000066  -0.000000
    25  H    0.001232   0.000106  -0.000876   0.000009   0.000022  -0.000009
    26  C    0.004833   0.006486   0.004564  -0.000354  -0.000596   0.000062
    27  H   -0.000753   0.000262   0.000335  -0.000087  -0.000005  -0.000001
    28  C    0.002385  -0.005046  -0.001383   0.000027   0.000233  -0.000009
    29  H   -0.001286  -0.001572   0.000166  -0.000001   0.000028   0.000002
    30  H   -0.000012   0.000300  -0.000007  -0.000000   0.000000   0.000000
    31  H    0.001572  -0.001388   0.000173  -0.000002  -0.000057   0.000000
    32  C   -0.047218  -0.043705  -0.093618   0.007908   0.008981  -0.000197
    33  C   -0.058446   0.001811  -0.020979  -0.036842   0.000070   0.004447
    34  C    0.491718   0.409453  -0.011585  -0.001364  -0.035712   0.005302
    35  C   -0.030522   0.000077   0.494678   0.413408   0.004323  -0.034415
    36  H   -0.001366  -0.000225   0.005005  -0.004273   0.000068  -0.000252
    37  C    4.888820  -0.013020   0.505168   0.005408   0.410186  -0.034615
    38  H   -0.013020   0.470256   0.003008   0.000063  -0.003427  -0.000249
    39  C    0.505168   0.003008   4.930047  -0.035746  -0.036021   0.411715
    40  H    0.005408   0.000063  -0.035746   0.512812  -0.000254  -0.004128
    41  H    0.410186  -0.003427  -0.036021  -0.000254   0.511526  -0.004160
    42  H   -0.034615  -0.000249   0.411715  -0.004128  -0.004160   0.513199
 Mulliken charges:
               1
     1  C   -0.174909
     2  C   -0.236899
     3  C    0.165126
     4  C   -0.249451
     5  C    0.171843
     6  C    0.189303
     7  O   -0.433506
     8  O   -0.486069
     9  C   -0.432646
    10  C   -0.199964
    11  N   -0.349412
    12  H    0.138816
    13  H    0.151140
    14  H    0.156858
    15  H    0.342308
    16  H    0.331890
    17  H    0.174210
    18  H    0.167105
    19  H    0.159640
    20  H    0.142021
    21  H    0.213734
    22  C    0.057014
    23  H    0.156427
    24  O   -0.467390
    25  H    0.329734
    26  C   -0.201544
    27  H    0.173820
    28  C   -0.434880
    29  H    0.162525
    30  H    0.151980
    31  H    0.154906
    32  C    0.103787
    33  C   -0.200370
    34  C   -0.270096
    35  C   -0.142354
    36  H    0.155040
    37  C   -0.126651
    38  H    0.179516
    39  C   -0.154143
    40  H    0.143429
    41  H    0.144807
    42  H    0.143303
 Sum of Mulliken charges =  -0.00000
 Mulliken charges with hydrogens summed into heavy atoms:
               1
     1  C   -0.036094
     2  C   -0.085759
     3  C    0.165126
     4  C   -0.092593
     5  C    0.171843
     6  C    0.189303
     7  O   -0.091198
     8  O   -0.154179
     9  C   -0.091330
    10  C    0.101698
    11  N   -0.135677
    22  C    0.213441
    24  O   -0.137656
    26  C   -0.027724
    28  C    0.034531
    32  C    0.103787
    33  C   -0.045330
    34  C   -0.090580
    35  C    0.001075
    37  C    0.018157
    39  C   -0.010840
 Electronic spatial extent (au):  <R**2>=          10882.9261
 Charge=             -0.0000 electrons
 Dipole moment (field-independent basis, Debye):
    X=             -0.9766    Y=              1.3553    Z=              2.0124  Tot=              2.6154
 Quadrupole moment (field-independent basis, Debye-Ang):
   XX=           -106.0659   YY=           -128.5497   ZZ=           -122.9432
   XY=              2.5991   XZ=            -15.2711   YZ=             -1.3633
 Traceless Quadrupole moment (field-independent basis, Debye-Ang):
   XX=             13.1204   YY=             -9.3634   ZZ=             -3.7570
   XY=              2.5991   XZ=            -15.2711   YZ=             -1.3633
 Octapole moment (field-independent basis, Debye-Ang**2):
  XXX=            -63.9124  YYY=             28.2109  ZZZ=              3.8788  XYY=             -7.5079
  XXY=             39.0709  XXZ=             87.0113  XZZ=            -55.4180  YZZ=             -7.4816
  YYZ=             -0.2731  XYZ=            -21.7190
 Hexadecapole moment (field-independent basis, Debye-Ang**3):
 XXXX=         -10827.6131 YYYY=          -1376.3162 ZZZZ=           -790.3175 XXXY=           -307.3314
 XXXZ=           -639.8604 YYYX=            -38.3440 YYYZ=            -16.6783 ZZZX=           -152.7278
 ZZZY=             26.1309 XXYY=          -2222.0430 XXZZ=          -2103.2128 YYZZ=           -383.1000
 XXYZ=             -0.8542 YYXZ=            -13.7186 ZZXY=            -50.9804
 N-N= 1.571255519034D+03 E-N=-5.334676931351D+03  KE= 9.363880423392D+02
 Unable to Open any file for archive entry.
 1\1\GINC-BIO3-HORSEA-12U\FOpt\RM062X\def2TZVP\C17H21N1O3\VIP13T32\21-A
 pr-2023\0\\# opt m062x/def2tzvp\\Title Card Required\\0,1\C,25.0144706
 869,41.0211614319,41.7820698052\C,25.5771410179,39.8937931878,41.19284
 3927\C,24.881011827,39.1761892151,40.2293872644\C,23.6073976491,39.606
 3750545,39.8603280906\C,23.0398541265,40.7254196278,40.4401649377\C,23
 .752257002,41.4359293813,41.4079378334\O,21.7977707066,41.1264935782,4
 0.0726746953\O,23.1053213526,42.5273173775,41.9271826993\C,25.50576322
 52,37.9871405536,39.5510651007\C,26.1871767895,38.3764987802,38.242402
 8918\N,26.8266666646,37.2212828099,37.6397635752\H,25.5591333385,41.57
 60788116,42.5379368188\H,26.5663927921,39.5713863629,41.4931801812\H,2
 3.0328048913,39.0688086055,39.1152212833\H,21.5680591149,41.9116512772
 ,40.5848906745\H,23.6532033092,42.9523737135,42.5927295489\H,26.248351
 2964,37.5240072809,40.2032504072\H,24.7407124046,37.2332215239,39.3443
 059607\H,26.9458053977,39.1344011431,38.4586956882\H,25.4481435057,38.
 8496383557,37.5750348777\H,26.1958623207,36.4268382747,37.630768538\C,
 27.2899192153,37.4295160298,36.2900540328\H,26.4893584704,37.837127656
 9,35.6445508671\O,27.6550892121,36.1509051652,35.8255323827\H,27.90991
 56949,36.2283881959,34.8994586325\C,28.4751565045,38.4195774397,36.239
 1684338\H,28.0807972481,39.3966553428,36.5334491838\C,29.5733662327,38
 .006884433,37.2117957048\H,30.4682963607,38.6121647251,37.0642043363\H
 ,29.2306166957,38.1254217976,38.2383774389\H,29.8306304098,36.95576446
 51,37.080694028\C,28.929128584,38.5444053043,34.8019206889\C,28.264884
 2626,39.4158160458,33.9390135923\C,29.9605452383,37.7631995909,34.2835
 908141\C,28.6187185848,39.5095180827,32.6015177642\H,27.4631885312,40.
 0342663896,34.3279120748\C,30.3175595037,37.8531100055,32.9435717546\H
 ,30.4946978424,37.0814353696,34.9332896946\C,29.6487276026,38.72585032
 18,32.0982569283\H,28.0932231745,40.1980148362,31.9521796375\H,31.1243
 510255,37.240462734,32.5618519151\H,29.9300223073,38.7986634516,31.055
 8606758\\Version=ES64L-G16RevC.01\State=1-A\HF=-940.8441514\RMSD=8.270
 e-09\RMSF=1.774e-06\Dipole=0.196174,0.9670566,0.2917091\Quadrupole=-9.
 0229916,-2.3199331,11.3429247,-1.8208526,-2.1615273,9.677766\PG=C01 [X
 (C17H21N1O3)]\\@
 The archive entry for this job was punched.


 My opinions may have changed, but not the fact that I am right.
                       -- Ashleigh Brilliant
 Job cpu time:       1 days  1 hours  8 minutes  0.7 seconds.
 Elapsed time:       0 days  2 hours  5 minutes 46.2 seconds.
 File lengths (MBytes):  RWF=    373 Int=      0 D2E=      0 Chk=     44 Scr=      1
 Normal termination of Gaussian 16 at Fri Apr 21 12:25:57 2023.
