20
 energy: -28.400498786128 gnorm: 0.000187894744 xtb: 6.5.1 (579679a)
C            1.64592231797092       13.39730254862304      100.76081795091417
C            1.55126390233549       12.22180407478172      100.03811790176582
C            0.99815506984246       12.22074067354986       98.76271384276960
C            0.54121795843551       13.41601061787544       98.22508098034834
C            0.63880900648428       14.59317482448947       98.94673242805953
C            1.19026863053758       14.58615779224513      100.21611587258599
H            2.07518596324449       13.38546919599513      101.75178056909928
H            1.90724540694125       11.29508048140524      100.46529557059095
H            0.10820858823074       13.42771873788310       97.23472007424300
C            0.92259840689507       10.93170128858632       97.97943160478212
H            0.23935882592592       11.07584230238281       97.13266539937311
C            2.29675840799060       10.50906634631086       97.45934049379825
H            2.21817470288858        9.56446125790302       96.92698931710076
H            2.98670049291443       10.37706106848021       98.28874823569686
H            1.26390179631122       15.50402061916919      100.78013833093262
H            0.28111478889180       15.51716025750470       98.51683625267634
C            0.30415782660923        9.86073612784607       98.84437615166290
H           -0.65698167453598       10.17696805686411       99.29916484008287
H            2.69628554100571       11.26567378785219       96.78874098179377
O            0.76165404108055        8.77384994025245       99.05219320172375
