20
 energy: -28.378763318408 gnorm: 0.136181992314 xtb: 6.5.1 (579679a)
C            1.83000000000000       13.43000000000000      100.69000000000000
C            1.83000000000000       12.25000000000000       99.87000000000000
C            1.13000000000000       12.27000000000000       98.67000000000000
C            0.35000000000000       13.39000000000000       98.30000000000000
C            0.35000000000000       14.55000000000000       99.08000000000000
C            1.17000000000000       14.63000000000000      100.19000000000000
H            2.37000000000000       13.44000000000000      101.63000000000000
H            2.23000000000000       11.31000000000000      100.25000000000000
H           -0.32000000000000       13.34000000000000       97.45000000000000
C            1.04000000000000       10.95000000000000       97.90999999999998
H            0.55000000000000       11.07000000000000       96.93999999999998
C            2.46000000000000       10.39000000000000       97.59999999999998
H            2.30000000000000        9.52000000000000       96.95000000000000
H            3.02000000000000        9.95000000000000       98.43999999999998
H            1.23000000000000       15.49000000000000      100.84000000000000
H           -0.18000000000000       15.41000000000000       98.70000000000000
C            0.09000000000000       10.08000000000000       98.74999999999999
H           -0.88000000000000       10.57000000000000       98.98000000000000
H            3.07000000000000       11.13000000000000       97.06999999999999
O            0.33000000000000        8.93000000000000       99.15999999999998
20
 energy: -28.396188704224 gnorm: 0.038637224478 xtb: 6.5.1 (579679a)
C            1.80968287006587       13.43395436876238      100.66827353988296
C            1.81901683839090       12.27973171543514       99.88531746238350
C            1.10432956761433       12.25875891551996       98.69455256097889
C            0.37486787655892       13.37900639448958       98.30192500725313
C            0.38486589667751       14.53859957969796       99.06763446341016
C            1.14389873027938       14.58840346585672      100.22116404992882
H            2.35686619247738       13.45235867571916      101.59889041218771
H            2.27956762150299       11.36755983672888      100.24760176333305
H           -0.27172786572455       13.33372193889472       97.43551122666845
C            1.04343583679089       10.95613674682066       97.91594494773489
H            0.53521524364623       11.10474756963373       96.95653521275486
C            2.42204201180384       10.35232024550599       97.59170498567528
H            2.29600973776608        9.49946885925121       96.92060895580718
H            2.96091747188736        9.98334481262903       98.46785301391560
H            1.22370976517434       15.47491314614731      100.83456962445658
H           -0.17502020752875       15.39823836515956       98.72381171460128
C            0.11830845064313       10.06937358326331       98.73172856432276
H           -0.84279228815236       10.56165331726696       98.97264090231954
H            3.03021812429508       11.10792805427129       97.09623793564744
O            0.35658812583145        8.95978040894643       99.13749365673804
20
 energy: -28.398954034061 gnorm: 0.021502271213 xtb: 6.5.1 (579679a)
C            1.83947740226773       13.44830530050631      100.64460331101037
C            1.77679775803726       12.28548435705830       99.90932183066410
C            1.07368573578023       12.24349298578486       98.71078651478037
C            0.36439868664991       13.36270568317054       98.31351918659988
C            0.41937192644189       14.53111909398799       99.05806853687032
C            1.15611142677683       14.57114386013914      100.22780877847278
H            2.37310210000544       13.46392348395301      101.58235582103954
H            2.30515185315135       11.40083356985837      100.24947109817062
H           -0.23008219277272       13.33916912599594       97.40638196717644
C            1.02790836629656       10.95922245636587       97.91263900695638
H            0.50556979441737       11.14703181270346       96.96415898439740
C            2.39540644117041       10.35610919393481       97.60016670552689
H            2.28231213347883        9.50715710074146       96.93108834124392
H            2.90287396777062       10.01468585469972       98.50028158273538
H            1.20017828912439       15.46726744715078      100.82988777448161
H           -0.15044506499617       15.39272258881371       98.73587026732412
C            0.14122041169773       10.04341689665456       98.72200192292648
H           -0.83555493956638       10.51626632460619       98.94873774508582
H            3.02028436340731       11.10212486356943       97.11459458116522
O            0.40223154086141        8.94781800030557       99.10825604337211
20
 energy: -28.399711453195 gnorm: 0.007710678530 xtb: 6.5.1 (579679a)
C            1.83195564182132       13.44499989309388      100.65447707517863
C            1.78967991644520       12.28753025298354       99.90545916333052
C            1.07791141796650       12.24379803411178       98.71110566854327
C            0.37623428665434       13.36953106868743       98.30815339824440
C            0.41511359447669       14.53085425446407       99.06159743334575
C            1.14615033411960       14.57121554588364      100.23527018576438
H            2.39047436354552       13.46811488896272      101.57872509879502
H            2.31138619150291       11.40542088954898      100.24767815230663
H           -0.20478282243766       13.34726311291438       97.39342312988195
C            1.01490114223747       10.96248312027072       97.91095642963950
H            0.48989851238917       11.16424474983281       96.96729534952912
C            2.38304012203541       10.36172450577582       97.60394775596177
H            2.26968859098967        9.50890944925747       96.94014623836382
H            2.87353604302707       10.01900558013802       98.51205554584227
H            1.18889881337706       15.47566987825246      100.82536963840529
H           -0.13531364899611       15.39875263759638       98.73091231891016
C            0.13856477386715       10.02294369011492       98.70670391365999
H           -0.84168766582089       10.48320814586938       98.95386333303505
H            3.01811399195599       11.10129069570929       97.12042810261094
O            0.43623640084360        8.93303960653230       99.10243206865148
20
 energy: -28.399816756732 gnorm: 0.009185502182 xtb: 6.5.1 (579679a)
C            1.83158197585454       13.44905951991254      100.66120015338939
C            1.79907860325843       12.29064504510563       99.90633897208072
C            1.07931619993699       12.24444574718325       98.71691899597681
C            0.38824206918889       13.37728567258992       98.30500668161160
C            0.41871271443705       14.53598452399177       99.06157648086464
C            1.14533417581788       14.57764437700508      100.23825095470767
H            2.40085149594919       13.47506205147264      101.57941756227527
H            2.31955603143151       11.41152851765439      100.25069280654610
H           -0.18433406607862       13.35332527472747       97.38784487046981
C            1.00583321179102       10.96455981500272       97.91583804149933
H            0.47166069770575       11.17460721015169       96.98023547529857
C            2.37309534555792       10.36361389526396       97.60352069590334
H            2.25914609337775        9.50612548011143       96.94523155930226
H            2.85510784569277       10.02138815637958       98.51471489647044
H            1.17547015475403       15.48394441697514      100.82504678101695
H           -0.12256643505041       15.40770422127579       98.72731041179759
C            0.14546277619390       10.01404907339143       98.71664264343350
H           -0.86567775052726       10.43060827060571       98.92590241666591
H            3.01169420819247       11.09972911146199       97.12009378326330
O            0.46243465251620        8.91868961973791       99.08821581742663
20
 energy: -28.399951652465 gnorm: 0.003659042732 xtb: 6.5.1 (579679a)
C            1.83398726793155       13.45189457470173      100.66027623709923
C            1.79288736966351       12.28960623774041       99.91014824136008
C            1.07343586671925       12.24240668753125       98.72112870362486
C            0.38850932778436       13.37802469799835       98.30564906914121
C            0.42407190493226       14.53866436435559       99.05916001965601
C            1.14923794540128       14.57971407861624      100.23700632714595
H            2.39960216447835       13.47620741669478      101.58024109644997
H            2.31895005904032       11.41258242036822      100.25410883143074
H           -0.17969681340439       13.35512146057777       97.38635010192039
C            1.00300308853621       10.96366350346135       97.91615174800421
H            0.46932956591488       11.17631064716980       96.98188035089922
C            2.37138973931213       10.36471763616826       97.60309746274828
H            2.25841061232536        9.50759743890637       96.94378849662520
H            2.85332911600463       10.02206512135810       98.51329183023753
H            1.17288600628919       15.48457960696876      100.82546844250223
H           -0.11648164983555       15.41171069156944       98.72540424253796
C            0.14075092614291       10.00400648777819       98.70348592761327
H           -0.86425995373267       10.41927851653515       98.93178886329669
H            3.00859310270072       11.10235053748861       97.12118625111722
O            0.47206435379569        8.91949787401161       99.09038775658961
20
 energy: -28.399980246837 gnorm: 0.001366148480 xtb: 6.5.1 (579679a)
C            1.83273155808001       13.45194844651305      100.66085459691168
C            1.78939784483304       12.28948904768594       99.91242675600520
C            1.07223695680680       12.24263841682983       98.72271257427838
C            0.38753613155683       13.37724895438908       98.30693883102964
C            0.42651122293934       14.53920323672356       99.05794966789902
C            1.15022684552295       14.57916679669425      100.23709517840823
H            2.39663854678011       13.47547668597349      101.58157919031333
H            2.31306604000069       11.41193917563827      100.25846922648472
H           -0.17854653602382       13.35485445097905       97.38593508678335
C            1.00193853578101       10.96337942979943       97.91767369697878
H            0.46725004856724       11.17525129380014       96.98402800090021
C            2.37103429932852       10.36692941401485       97.60209360998759
H            2.25706688202551        9.51065529574329       96.94187314102355
H            2.85715918084587       10.02468197231117       98.51054027799000
H            1.17873599582746       15.48529122193152      100.82360325135905
H           -0.11042969607464       15.41372181009869       98.72162336969916
C            0.14235562352846       10.00134358089471       98.70449353105515
H           -0.86512972843310       10.41057908134002       98.92705044849538
H            3.00441074326881       11.10638924082940       97.11872343375600
O            0.47580950483892        8.91981244781029       99.09433613064147
20
 energy: -28.400020718244 gnorm: 0.002554871278 xtb: 6.5.1 (579679a)
C            1.82857494870300       13.45164269189150      100.66416065937902
C            1.77893895123500       12.28670309393965       99.91985651927504
C            1.06617230080813       12.24152676898705       98.72869373226555
C            0.38956488035896       13.37868310734749       98.30718688864839
C            0.43598807098471       14.54325372418457       99.05318253741540
C            1.15605709855557       14.58124248118377      100.23514641520367
H            2.38962718334121       13.47345311929748      101.58636058099755
H            2.29845841717176       11.40781014144486      100.27044698996215
H           -0.17346044254085       13.35654499654831       97.38477489131377
C            0.99629823668164       10.96237848625254       97.92159843196366
H            0.45824336897526       11.17407208867271       96.99035262962985
C            2.36799000360307       10.37409303390126       97.59842340451040
H            2.25416812622619        9.51848882635040       96.93679862876476
H            2.86247913903937       10.03333917906902       98.50395420102875
H            1.19206767604803       15.48906645947346      100.81880031375573
H           -0.09347371622694       15.42106820190888       98.71200072819670
C            0.14635580608160        9.99135841154771       98.70705300514085
H           -0.87278963361056       10.37789787917897       98.91108309859982
H            2.99304746119141       11.11843933175875       97.11246106319419
O            0.49569212337342        8.91893797706164       99.10766528075477
20
 energy: -28.400051275011 gnorm: 0.002107323086 xtb: 6.5.1 (579679a)
C            1.82540745162934       13.44939608425409      100.66645370575215
C            1.77132543251419       12.28279260984208       99.92449062075754
C            1.06111292900393       12.23942002032678       98.73184358444327
C            0.39145581020766       13.37952500198867       98.30638821848939
C            0.44251589259142       14.54535538373012       99.04993654113964
C            1.16087821836449       14.58252479035995      100.23282531501083
H            2.38389525699280       13.46987094068106      101.59034622489463
H            2.28335200721225       11.40147182037239      100.27917794206441
H           -0.16965254137614       13.35838305234626       97.38265648349974
C            0.99199630898281       10.96097215251982       97.92324305482086
H            0.45062677930779       11.17298381718341       96.99387014672438
C            2.36603186965211       10.38069879775754       97.59484626829510
H            2.25476383227323        9.52507759297012       96.93275447773574
H            2.86547509272900       10.04161509023488       98.49848516295521
H            1.20183407568855       15.49146483572349      100.81460112901954
H           -0.08119598763869       15.42532937273998       98.70534630544100
C            0.14964485555621        9.98508714566629       98.70998677219707
H           -0.87659447491409       10.35813656050568       98.90226506481217
H            2.98577343405578       11.12892840089561       97.10767098089029
O            0.51135375716734        8.92096652990179       99.12281200105706
20
 energy: -28.400093847090 gnorm: 0.002617550585 xtb: 6.5.1 (579679a)
C            1.81876082286300       13.44328221839052      100.67038001619318
C            1.75713763045280       12.27502218796710       99.93136889864529
C            1.05285256219003       12.23579569070772       98.73459984857891
C            0.39459156484585       13.38073480775831       98.30374064051533
C            0.45293540533743       14.54788124365272       99.04470412909434
C            1.16871838295033       14.58313545151235      100.22887366396385
H            2.37486608930990       13.46204270169129      101.59612445062166
H            2.25878675785700       11.38896048874468      100.29060112384741
H           -0.16522286300857       13.36132818668467       97.37921961169879
C            0.98548292900365       10.95857910154507       97.92395896644774
H            0.43835290447969       11.16996687321060       96.99760197143847
C            2.36356393099457       10.39178286885387       97.58908040606534
H            2.25865793342561        9.53586496720101       96.92642211441171
H            2.86968083578595       10.05661381145576       98.49066292215990
H            1.21782654908659       15.49366047638873      100.80769556758092
H           -0.06247980783502       15.43098064018398       98.69589005311326
C            0.15555319717991        9.97743860510546       98.71605999128691
H           -0.88074613642599       10.33212142741803       98.89005357889690
H            2.97493649889234       11.14659852655987       97.10052379244345
O            0.53574481261490        8.92820972496825       99.15243825299652
20
 energy: -28.400125826805 gnorm: 0.003476492008 xtb: 6.5.1 (579679a)
C            1.81289031821119       13.43663920469393      100.67335439749620
C            1.74428331271406       12.26756017109732       99.93652024210608
C            1.04536182434063       12.23239682903555       98.73574248869167
C            0.39768006667735       13.38168574363414       98.30047091809561
C            0.46255570152346       14.54968270143332       99.03980854898583
C            1.17515412228580       14.58230131437110      100.22570735061157
H            2.36436225040058       13.45278083740359      101.60207434126809
H            2.23331650773083       11.37630126242046      100.30028809124045
H           -0.15945347376248       13.36507191231339       97.37391340484116
C            0.97979850930839       10.95610176503776       97.92372290357490
H            0.42614746181722       11.16575808149262       97.00080513564308
C            2.36158839977255       10.40229758950521       97.58279322006854
H            2.26357473002446        9.54585300833788       96.91995177282487
H            2.87326792309199       10.07182785490753       98.48274117313785
H            1.23083266353865       15.49401961774316      100.80192668194314
H           -0.04424348373108       15.43606845408633       98.68707804959389
C            0.16206181239489        9.97171050291149       98.72372898194034
H           -0.88178898003630       10.31126993689604       98.88415381970502
H            2.96472792313386       11.16338651141997       97.09299910122483
O            0.55788241056392        8.93728670125922       99.18221937700682
20
 energy: -28.400150368507 gnorm: 0.002455968749 xtb: 6.5.1 (579679a)
C            1.80739899650441       13.43132041105787      100.67580031951493
C            1.73533266760679       12.26263035850816       99.93925970416987
C            1.04126795506002       12.23066662544449       98.73505126940407
C            0.40092529534126       13.38274731515838       98.29687681218563
C            0.46919481739180       14.55070315073677       99.03618261960615
C            1.17816375635370       14.58051999242094      100.22428731624642
H            2.35568939700107       13.44555396896255      101.60647533303074
H            2.21706861973834       11.36805740680225      100.30475747143232
H           -0.15335368964166       13.36857999502919       97.36839963466261
C            0.97634086006365       10.95453174200794       97.92295279996381
H            0.41746251569768       11.16174948490154       97.00281970642902
C            2.36018044531018       10.40883432180437       97.57804434556836
H            2.26650623335354        9.55188253150337       96.91550363706990
H            2.87530829430287       10.08213076690385       98.47691047304951
H            1.23646731800313       15.49258471589551      100.79933183711431
H           -0.03154677070997       15.43944716013919       98.68121841458705
C            0.16734796891838        9.96922517033194       98.73063235277337
H           -0.87952951425744       10.30052105223856       98.88694772819854
H            2.95755008292486       11.17366464710449       97.08696916905457
O            0.57222475103733        8.94464918304869       99.20157905593861
20
 energy: -28.400178619885 gnorm: 0.002021696079 xtb: 6.5.1 (579679a)
C            1.80085734086951       13.42563198091130      100.67838785262047
C            1.72584555851959       12.25813041290698       99.94104211701770
C            1.03766141772121       12.23005156697558       98.73305565621641
C            0.40568521867683       13.38506088770477       98.29188891588807
C            0.47671223463565       14.55237114391629       99.03217313900602
C            1.17929683980644       14.57758013948496      100.22441303551770
H            2.34412257457387       13.43669119299684      101.61191142244613
H            2.20095946150540       11.36047514408976      100.30750723399200
H           -0.14315935396781       13.37448885053739       97.35999622043197
C            0.97247076250802       10.95350567743693       97.92160478565584
H            0.40735683083176       11.15630826002204       97.00483795198012
C            2.35770885203185       10.41446896049522       97.57237389993183
H            2.26743171867797        9.55668832853089       96.91065753587593
H            2.87651653896620       10.09231925709779       98.47030821749225
H            1.23874923388259       15.48948602188869      100.79909163201285
H           -0.01661936478583       15.44425131689330       98.67496480642282
C            0.17419338031765        9.96729358480503       98.73941152346410
H           -0.87634480586917       10.28879936977336       98.89389733036350
H            2.94887253625019       11.18241237773259       97.07917709293113
O            0.59168302484803        8.95398552580027       99.22329963073304
20
 energy: -28.400206302356 gnorm: 0.001482506813 xtb: 6.5.1 (579679a)
C            1.79230797637272       13.42002145439187      100.68182784534619
C            1.71629916504571       12.25383152678417       99.94279783067520
C            1.03519109459933       12.23003549958821       98.73073095577561
C            0.41237680735625       13.38823251141571       98.28567302005656
C            0.48492052679431       14.55468655305138       99.02743829801415
C            1.17906486651912       14.57476390441594      100.22487618963251
H            2.32928717454500       13.42738286764736      101.61887995182975
H            2.18568776674494       11.35345766185680      100.31018608919879
H           -0.13002511281064       13.38128430842480       97.35020482525098
C            0.96906097561152       10.95221419614149       97.92102209990344
H            0.39687346299571       11.14970304431542       97.00788067824301
C            2.35517770091003       10.41918165524919       97.56511299621431
H            2.26597057501495        9.56027789522988       96.90479195663561
H            2.87963078082761       10.10140263834709       98.46116297877190
H            1.23794376145382       15.48578435543429      100.80085797039511
H           -0.00125425534844       15.44956896663605       98.66805755763967
C            0.18204033538747        9.96625419849696       98.75053825146954
H           -0.87094746552858       10.27865932461656       98.90567388889006
H            2.93949823428305       11.18969614233332       97.06815714539412
O            0.61089562922607        8.96356129562354       99.24412947066349
20
 energy: -28.400236392057 gnorm: 0.002090498454 xtb: 6.5.1 (579679a)
C            1.77839482819342       13.41246740206967      100.68799829640901
C            1.70181615384442       12.24802139720333       99.94632793463839
C            1.03190287087093       12.23044946103440       98.72817790109403
C            0.42387453385644       13.39366222516076       98.27649235898691
C            0.49826406835731       14.55884697214508       99.02024782293502
C            1.17782464178685       14.57122393196441      100.22638382098884
H            2.30546195524434       13.41418068919793      101.63060116097427
H            2.16277370280771       11.34421487182661      100.31626554038327
H           -0.10667267058455       13.39225054180121       97.33439940611905
C            0.96314127785735       10.95081707148334       97.92076343074267
H            0.37988677096526       11.14113877308547       97.01343158847934
C            2.34961737951804       10.42561508697491       97.55302601709080
H            2.25956999387913        9.56465917841628       96.89540327640591
H            2.88428776386177       10.11399077009318       98.44535822652878
H            1.23547441460610       15.48088150721164      100.80490583183642
H            0.02391332961731       15.45861082689227       98.65665481769344
C            0.19488245653132        9.96339182451564       98.76685351152568
H           -0.86427711303491       10.25824148351959       98.91933446295144
H            2.92366125283695       11.19891239046582       97.04883476805520
O            0.64620238898475        8.97842359493849       99.27853982616156
20
 energy: -28.400251410604 gnorm: 0.001484687251 xtb: 6.5.1 (579679a)
C            1.77241232185887       13.41087500139398      100.69120770236626
C            1.69720388295161       12.24642297878162       99.94889897411846
C            1.03212517699898       12.23037294878772       98.72831338086856
C            0.42986144092919       13.39532307267567       98.27307165633160
C            0.50343685225374       14.56029519100049       99.01718759038796
C            1.17615864760955       14.57084852525069      100.22700302427489
H            2.29418162511270       13.41088912054668      101.63677131163190
H            2.15437604796818       11.34175914531875      100.32110363423146
H           -0.09575463487959       13.39514271342165       97.32842430375734
C            0.96183532849046       10.94995120933730       97.92212890570644
H            0.37365610581216       11.13855212137713       97.01746990474089
C            2.34729049271040       10.42724211792867       97.54677517909521
H            2.25481521226642        9.56509640290914       96.89087070122494
H            2.88809647229843       10.11798602507564       98.43649560035473
H            1.23238629455941       15.48000806095211      100.80690733233588
H            0.03346240816191       15.46128523496073       98.65103085366921
C            0.20026214562950        9.96247672867235       98.77362841202635
H           -0.85894161989314       10.25295046800012       98.92852386142908
H            2.91688152091762       11.20089196601427       97.03797740169865
O            0.65625427824355        8.98163096759536       99.28621026975011
20
 energy: -28.400269268151 gnorm: 0.002030898531 xtb: 6.5.1 (579679a)
C            1.76078223114949       13.40815504911165      100.69814218371667
C            1.68760399441077       12.24337878424674       99.95562836789647
C            1.03186506654288       12.22950801458954       98.73015634415813
C            0.44108196064388       13.39781799178790       98.26788515001769
C            0.51442534835396       14.56319566217520       99.01126367950725
C            1.17466342030514       14.57108641190488      100.22763603046702
H            2.27403986163882       13.40628177011350      101.64834408901882
H            2.13783419039428       11.33724604848572      100.33266574393411
H           -0.07576653707696       13.39923230216410       97.31873691756184
C            0.95857297619618       10.94859748431523       97.92490459604724
H            0.36131737653857       11.13567497932200       97.02574814317713
C            2.34209575585338       10.43143475592622       97.53523004158201
H            2.24524066755669        9.56650405795226       96.88327399751981
H            2.89502889431017       10.12736145746883       98.41974873284255
H            1.22937799221597       15.47969540413023      100.80892022822334
H            0.05271652713540       15.46622445743249       98.63973898325051
C            0.20998505558734        9.95871144735173       98.78396887546782
H           -0.85168469555588       10.23793761047560       98.93954827640438
H            2.90288309864770       11.20540461629761       97.01688074950532
O            0.67793681515214        8.98655169474861       99.30157886970183
20
 energy: -28.400275084465 gnorm: 0.001269323151 xtb: 6.5.1 (579679a)
C            1.75835541915547       13.40787608096597      100.69988881088095
C            1.68473654864004       12.24264764563085       99.95813567617904
C            1.03132547783710       12.22898957823265       98.73138494272447
C            0.44360971262877       13.39804753245489       98.26730099022092
C            0.51739183874518       14.56386344157764       99.00992596747203
C            1.17488393725620       14.57146466640249      100.22765177643149
H            2.26928861876569       13.40593476060927      101.65134338545253
H            2.13283436801715       11.33606832212807      100.33670603210972
H           -0.07104726084699       13.39974260179453       97.31681196546894
C            0.95746445722274       10.94837923990046       97.92573751678852
H            0.35802806894244       11.13567074718510       97.02817398879110
C            2.34052958294781       10.43302843639770       97.53260469516673
H            2.24315916528223        9.56681569209615       96.88232870803162
H            2.89694058716417       10.13146767972565       98.41584658868005
H            1.23036232689898       15.48038984447302      100.80829175654955
H            0.05838658967439       15.46746829217083       98.63636023684730
C            0.21224811307900        9.95656911504173       98.78544416740387
H           -0.85033552631424       10.23262588346914       98.94125913810950
H            2.89834550245200       11.20711034888863       97.01122270422844
O            0.68349247245182        8.98584009085528       99.30358095246318
20
 energy: -28.400283928013 gnorm: 0.000576473296 xtb: 6.5.1 (579679a)
C            1.75562601915879       13.40803242760726      100.70224823918575
C            1.68102358372257       12.24207921733649       99.96211129933089
C            1.03028918605897       12.22808250098949       98.73385154407005
C            0.44627148794532       13.39785082534325       98.26734567169878
C            0.52156344141879       14.56484813489511       99.00802318335435
C            1.17643757022307       14.57259202266354      100.22708694927789
H            2.26454970716052       13.40686415270307      101.65470589008375