 Entering Gaussian System, Link 0=g16
 Input=dop-water.gjf
 Output=dop-water.log
 Initial command:
 /home/data/vip13t32/docs/gaussian/gaussian/g16/l1.exe "/home/data/vip13t32/Rtmp/Gau-2819799.inp" -scrdir="/home/data/vip13t32/Rtmp/"
 Entering Link 1 = /home/data/vip13t32/docs/gaussian/gaussian/g16/l1.exe PID=   2819801.
  
 Copyright (c) 1988-2019, Gaussian, Inc.  All Rights Reserved.
  
 This is part of the Gaussian(R) 16 program.  It is based on
 the Gaussian(R) 09 system (copyright 2009, Gaussian, Inc.),
 the Gaussian(R) 03 system (copyright 2003, Gaussian, Inc.),
 the Gaussian(R) 98 system (copyright 1998, Gaussian, Inc.),
 the Gaussian(R) 94 system (copyright 1995, Gaussian, Inc.),
 the Gaussian 92(TM) system (copyright 1992, Gaussian, Inc.),
 the Gaussian 90(TM) system (copyright 1990, Gaussian, Inc.),
 the Gaussian 88(TM) system (copyright 1988, Gaussian, Inc.),
 the Gaussian 86(TM) system (copyright 1986, Carnegie Mellon
 University), and the Gaussian 82(TM) system (copyright 1983,
 Carnegie Mellon University). Gaussian is a federally registered
 trademark of Gaussian, Inc.
  
 This software contains proprietary and confidential information,
 including trade secrets, belonging to Gaussian, Inc.
  
 This software is provided under written license and may be
 used, copied, transmitted, or stored only in accord with that
 written license.
  
 The following legend is applicable only to US Government
 contracts under FAR:
  
                    RESTRICTED RIGHTS LEGEND
  
 Use, reproduction and disclosure by the US Government is
 subject to restrictions as set forth in subparagraphs (a)
 and (c) of the Commercial Computer Software - Restricted
 Rights clause in FAR 52.227-19.
  
 Gaussian, Inc.
 340 Quinnipiac St., Bldg. 40, Wallingford CT 06492
  
  
 ---------------------------------------------------------------
 Warning -- This program may not be used in any manner that
 competes with the business of Gaussian, Inc. or will provide
 assistance to any competitor of Gaussian, Inc.  The licensee
 of this program is prohibited from giving any competitor of
 Gaussian, Inc. access to this program.  By using this program,
 the user acknowledges that Gaussian, Inc. is engaged in the
 business of creating and licensing software in the field of
 computational chemistry and represents and warrants to the
 licensee that it is not a competitor of Gaussian, Inc. and that
 it will not use this program in any manner prohibited above.
 ---------------------------------------------------------------
  

 Cite this work as:
 Gaussian 16, Revision C.01,
 M. J. Frisch, G. W. Trucks, H. B. Schlegel, G. E. Scuseria, 
 M. A. Robb, J. R. Cheeseman, G. Scalmani, V. Barone, 
 G. A. Petersson, H. Nakatsuji, X. Li, M. Caricato, A. V. Marenich, 
 J. Bloino, B. G. Janesko, R. Gomperts, B. Mennucci, H. P. Hratchian, 
 J. V. Ortiz, A. F. Izmaylov, J. L. Sonnenberg, D. Williams-Young, 
 F. Ding, F. Lipparini, F. Egidi, J. Goings, B. Peng, A. Petrone, 
 T. Henderson, D. Ranasinghe, V. G. Zakrzewski, J. Gao, N. Rega, 
 G. Zheng, W. Liang, M. Hada, M. Ehara, K. Toyota, R. Fukuda, 
 J. Hasegawa, M. Ishida, T. Nakajima, Y. Honda, O. Kitao, H. Nakai, 
 T. Vreven, K. Throssell, J. A. Montgomery, Jr., J. E. Peralta, 
 F. Ogliaro, M. J. Bearpark, J. J. Heyd, E. N. Brothers, K. N. Kudin, 
 V. N. Staroverov, T. A. Keith, R. Kobayashi, J. Normand, 
 K. Raghavachari, A. P. Rendell, J. C. Burant, S. S. Iyengar, 
 J. Tomasi, M. Cossi, J. M. Millam, M. Klene, C. Adamo, R. Cammi, 
 J. W. Ochterski, R. L. Martin, K. Morokuma, O. Farkas, 
 J. B. Foresman, and D. J. Fox, Gaussian, Inc., Wallingford CT, 2019.
 
 ******************************************
 Gaussian 16:  ES64L-G16RevC.01  3-Jul-2019
                 1-Apr-2023 
 ******************************************
 %mem=40GB
 %chk=/home/data/vip13t32/docs/g16out/mol_for_md/dop/water.chk
 %nprocshared=20
 Will use up to   20 processors via shared memory.
 ---------------------------------------------
 # opt m062x/def2tzvp scrf=(smd,solvent=water)
 ---------------------------------------------
 1/18=20,19=15,26=3,38=1/1,3;
 2/9=110,12=2,17=6,18=5,40=1/2;
 3/5=44,7=101,11=2,25=1,30=1,70=32201,71=1,72=1,74=-55/1,2,3;
 4//1;
 5/5=2,38=5,53=1/2;
 6/7=2,8=2,9=2,10=2,28=1/1;
 7//1,2,3,16;
 1/18=20,19=15,26=3/3(2);
 2/9=110/2;
 99//99;
 2/9=110/2;
 3/5=44,7=101,11=2,25=1,30=1,70=32205,71=1,72=1,74=-55/1,2,3;
 4/5=5,16=3,69=1/1;
 5/5=2,38=5,53=1/2;
 7//1,2,3,16;
 1/18=20,19=15,26=3/3(-5);
 2/9=110/2;
 6/7=2,8=2,9=2,10=2,19=2,28=1/1;
 99/9=1/99;
 -------------------
 Title Card Required
 -------------------
 Symbolic Z-matrix:
 Charge =  0 Multiplicity = 1
 C                     1.53645   11.26862   106.50389 
 C                     1.05268   11.22646   105.20879 
 C                    -0.15575   10.60627   104.92102 
 C                    -0.88803   10.053    105.96312 
 C                    -0.42564   10.10961   107.26673 
 C                     0.8143    10.6977   107.53877 
 H                     2.48069   11.73578   106.73403 
 H                     1.62698   11.67243   104.41119 
 H                    -1.83993   9.57853   105.78075 
 O                    -1.18982   9.56447   108.27221 
 H                    -1.00687   10.02254   109.10238 
 O                     1.31873   10.73981   108.8179 
 H                     0.97576   9.99376   109.32634 
 C                    -0.65315   10.491    103.50902 
 H                    -1.73651   10.61755   103.48392 
 H                    -0.1914    11.25631   102.88544 
 C                    -0.30565   9.11703   102.91923 
 H                    -0.77998   9.01371   101.93876 
 H                    -0.71369   8.33328   103.58078 
 N                     1.13036   9.01375   102.72206 
 H                     1.60763   9.12728   103.61116 
 H                     1.37286   8.1011    102.3525 
 

 GradGradGradGradGradGradGradGradGradGradGradGradGradGradGradGradGradGrad
 Berny optimization.
 Initialization pass.
                           ----------------------------
                           !    Initial Parameters    !
                           ! (Angstroms and Degrees)  !
 --------------------------                            --------------------------
 ! Name  Definition              Value          Derivative Info.                !
 --------------------------------------------------------------------------------
 ! R1    R(1,2)                  1.3831         estimate D2E/DX2                !
 ! R2    R(1,6)                  1.3851         estimate D2E/DX2                !
 ! R3    R(1,7)                  1.0783         estimate D2E/DX2                !
 ! R4    R(2,3)                  1.3884         estimate D2E/DX2                !
 ! R5    R(2,8)                  1.0793         estimate D2E/DX2                !
 ! R6    R(3,4)                  1.3886         estimate D2E/DX2                !
 ! R7    R(3,14)                 1.5015         estimate D2E/DX2                !
 ! R8    R(4,5)                  1.3843         estimate D2E/DX2                !
 ! R9    R(4,9)                  1.0791         estimate D2E/DX2                !
 ! R10   R(5,6)                  1.399          estimate D2E/DX2                !
 ! R11   R(5,10)                 1.3756         estimate D2E/DX2                !
 ! R12   R(6,12)                 1.3756         estimate D2E/DX2                !
 ! R13   R(10,11)                0.9656         estimate D2E/DX2                !
 ! R14   R(12,13)                0.9658         estimate D2E/DX2                !
 ! R15   R(14,15)                1.091          estimate D2E/DX2                !
 ! R16   R(14,16)                1.0898         estimate D2E/DX2                !
 ! R17   R(14,17)                1.5351         estimate D2E/DX2                !
 ! R18   R(17,18)                1.0941         estimate D2E/DX2                !
 ! R19   R(17,19)                1.1038         estimate D2E/DX2                !
 ! R20   R(17,20)                1.4532         estimate D2E/DX2                !
 ! R21   R(20,21)                1.0155         estimate D2E/DX2                !
 ! R22   R(20,22)                1.0141         estimate D2E/DX2                !
 ! A1    A(2,1,6)              120.3101         estimate D2E/DX2                !
 ! A2    A(2,1,7)              121.2864         estimate D2E/DX2                !
 ! A3    A(6,1,7)              118.402          estimate D2E/DX2                !
 ! A4    A(1,2,3)              120.8034         estimate D2E/DX2                !
 ! A5    A(1,2,8)              119.5548         estimate D2E/DX2                !
 ! A6    A(3,2,8)              119.6389         estimate D2E/DX2                !
 ! A7    A(2,3,4)              118.7774         estimate D2E/DX2                !
 ! A8    A(2,3,14)             121.166          estimate D2E/DX2                !
 ! A9    A(4,3,14)             120.0296         estimate D2E/DX2                !
 ! A10   A(3,4,5)              120.9472         estimate D2E/DX2                !
 ! A11   A(3,4,9)              120.8987         estimate D2E/DX2                !
 ! A12   A(5,4,9)              118.1491         estimate D2E/DX2                !
 ! A13   A(4,5,6)              119.7576         estimate D2E/DX2                !
 ! A14   A(4,5,10)             119.1154         estimate D2E/DX2                !
 ! A15   A(6,5,10)             121.1192         estimate D2E/DX2                !
 ! A16   A(1,6,5)              119.3454         estimate D2E/DX2                !
 ! A17   A(1,6,12)             119.4025         estimate D2E/DX2                !
 ! A18   A(5,6,12)             121.2426         estimate D2E/DX2                !
 ! A19   A(5,10,11)            109.5824         estimate D2E/DX2                !
 ! A20   A(6,12,13)            109.6126         estimate D2E/DX2                !
 ! A21   A(3,14,15)            109.9788         estimate D2E/DX2                !
 ! A22   A(3,14,16)            110.1095         estimate D2E/DX2                !
 ! A23   A(3,14,17)            110.7958         estimate D2E/DX2                !
 ! A24   A(15,14,16)           109.0322         estimate D2E/DX2                !
 ! A25   A(15,14,17)           108.6486         estimate D2E/DX2                !
 ! A26   A(16,14,17)           108.2271         estimate D2E/DX2                !
 ! A27   A(14,17,18)           109.3111         estimate D2E/DX2                !
 ! A28   A(14,17,19)           108.7583         estimate D2E/DX2                !
 ! A29   A(14,17,20)           109.8431         estimate D2E/DX2                !
 ! A30   A(18,17,19)           108.0463         estimate D2E/DX2                !
 ! A31   A(18,17,20)           107.4649         estimate D2E/DX2                !
 ! A32   A(19,17,20)           113.3383         estimate D2E/DX2                !
 ! A33   A(17,20,21)           109.7371         estimate D2E/DX2                !
 ! A34   A(17,20,22)           110.4705         estimate D2E/DX2                !
 ! A35   A(21,20,22)           107.8976         estimate D2E/DX2                !
 ! D1    D(6,1,2,3)             -0.4362         estimate D2E/DX2                !
 ! D2    D(6,1,2,8)           -179.803          estimate D2E/DX2                !
 ! D3    D(7,1,2,3)            179.1122         estimate D2E/DX2                !
 ! D4    D(7,1,2,8)             -0.2545         estimate D2E/DX2                !
 ! D5    D(2,1,6,5)             -1.694          estimate D2E/DX2                !
 ! D6    D(2,1,6,12)           179.4173         estimate D2E/DX2                !
 ! D7    D(7,1,6,5)            178.7447         estimate D2E/DX2                !
 ! D8    D(7,1,6,12)            -0.1441         estimate D2E/DX2                !
 ! D9    D(1,2,3,4)              1.4266         estimate D2E/DX2                !
 ! D10   D(1,2,3,14)          -176.6838         estimate D2E/DX2                !
 ! D11   D(8,2,3,4)           -179.2071         estimate D2E/DX2                !
 ! D12   D(8,2,3,14)             2.6825         estimate D2E/DX2                !
 ! D13   D(2,3,4,5)             -0.2763         estimate D2E/DX2                !
 ! D14   D(2,3,4,9)            178.8949         estimate D2E/DX2                !
 ! D15   D(14,3,4,5)           177.8562         estimate D2E/DX2                !
 ! D16   D(14,3,4,9)            -2.9727         estimate D2E/DX2                !
 ! D17   D(2,3,14,15)         -142.7805         estimate D2E/DX2                !
 ! D18   D(2,3,14,16)          -22.6072         estimate D2E/DX2                !
 ! D19   D(2,3,14,17)           97.0858         estimate D2E/DX2                !
 ! D20   D(4,3,14,15)           39.1325         estimate D2E/DX2                !
 ! D21   D(4,3,14,16)          159.3058         estimate D2E/DX2                !
 ! D22   D(4,3,14,17)          -81.0011         estimate D2E/DX2                !
 ! D23   D(3,4,5,6)             -1.8431         estimate D2E/DX2                !
 ! D24   D(3,4,5,10)           179.1691         estimate D2E/DX2                !
 ! D25   D(9,4,5,6)            178.9635         estimate D2E/DX2                !
 ! D26   D(9,4,5,10)            -0.0243         estimate D2E/DX2                !
 ! D27   D(4,5,6,1)              2.8171         estimate D2E/DX2                !
 ! D28   D(4,5,6,12)          -178.3153         estimate D2E/DX2                !
 ! D29   D(10,5,6,1)          -178.2159         estimate D2E/DX2                !
 ! D30   D(10,5,6,12)            0.6517         estimate D2E/DX2                !
 ! D31   D(4,5,10,11)         -152.3582         estimate D2E/DX2                !
 ! D32   D(6,5,10,11)           28.6683         estimate D2E/DX2                !
 ! D33   D(1,6,12,13)         -153.1429         estimate D2E/DX2                !
 ! D34   D(5,6,12,13)           27.99           estimate D2E/DX2                !
 ! D35   D(3,14,17,18)         173.2978         estimate D2E/DX2                !
 ! D36   D(3,14,17,19)          55.544          estimate D2E/DX2                !
 ! D37   D(3,14,17,20)         -69.0216         estimate D2E/DX2                !
 ! D38   D(15,14,17,18)         52.3736         estimate D2E/DX2                !
 ! D39   D(15,14,17,19)        -65.3802         estimate D2E/DX2                !
 ! D40   D(15,14,17,20)        170.0542         estimate D2E/DX2                !
 ! D41   D(16,14,17,18)        -65.8872         estimate D2E/DX2                !
 ! D42   D(16,14,17,19)        176.3589         estimate D2E/DX2                !
 ! D43   D(16,14,17,20)         51.7934         estimate D2E/DX2                !
 ! D44   D(14,17,20,21)         59.8486         estimate D2E/DX2                !
 ! D45   D(14,17,20,22)        178.6934         estimate D2E/DX2                !
 ! D46   D(18,17,20,21)        178.6713         estimate D2E/DX2                !
 ! D47   D(18,17,20,22)        -62.4839         estimate D2E/DX2                !
 ! D48   D(19,17,20,21)        -62.0246         estimate D2E/DX2                !
 ! D49   D(19,17,20,22)         56.8201         estimate D2E/DX2                !
 --------------------------------------------------------------------------------
 Trust Radius=3.00D-01 FncErr=1.00D-07 GrdErr=1.00D-06 EigMax=2.50D+02 EigMin=1.00D-04
 Number of steps in this run=    116 maximum allowed number of steps=    132.
 GradGradGradGradGradGradGradGradGradGradGradGradGradGradGradGradGradGrad

                          Input orientation:                          
 ---------------------------------------------------------------------
 Center     Atomic      Atomic             Coordinates (Angstroms)
 Number     Number       Type             X           Y           Z
 ---------------------------------------------------------------------
      1          6           0        1.536453   11.268620  106.503888
      2          6           0        1.052682   11.226465  105.208787
      3          6           0       -0.155753   10.606274  104.921025
      4          6           0       -0.888031   10.052996  105.963123
      5          6           0       -0.425643   10.109614  107.266729
      6          6           0        0.814297   10.697695  107.538769
      7          1           0        2.480689   11.735776  106.734034
      8          1           0        1.626979   11.672430  104.411190
      9          1           0       -1.839930    9.578531  105.780748
     10          8           0       -1.189822    9.564474  108.272212
     11          1           0       -1.006869   10.022544  109.102376
     12          8           0        1.318726   10.739810  108.817900
     13          1           0        0.975760    9.993760  109.326345
     14          6           0       -0.653148   10.491005  103.509019
     15          1           0       -1.736512   10.617550  103.483923
     16          1           0       -0.191404   11.256307  102.885444
     17          6           0       -0.305653    9.117026  102.919232
     18          1           0       -0.779982    9.013711  101.938763
     19          1           0       -0.713691    8.333279  103.580781
     20          7           0        1.130363    9.013750  102.722058
     21          1           0        1.607630    9.127283  103.611159
     22          1           0        1.372859    8.101100  102.352498
 ---------------------------------------------------------------------
                    Distance matrix (angstroms):
                    1          2          3          4          5
     1  C    0.000000
     2  C    1.383148   0.000000
     3  C    2.409921   1.388438   0.000000
     4  C    2.765554   2.390066   1.388638   0.000000
     5  C    2.403131   2.769102   2.412849   1.384340   0.000000
     6  C    1.385079   2.401092   2.793196   2.407534   1.399034
     7  H    1.078325   2.150577   3.393171   3.843739   3.372674
     8  H    2.133223   1.079288   2.138868   3.369917   3.848344
     9  H    3.844385   3.377873   2.152169   1.079115   2.119056
    10  O    3.669286   4.144347   3.658566   2.379417   1.375553
    11  H    3.843610   4.566313   4.306837   3.141650   1.927435
    12  O    2.383631   3.651481   4.168640   3.673043   2.417871
    13  H    3.147365   4.298809   4.589373   3.845580   2.493866
    14  C    3.790551   2.517929   1.501482   2.503926   3.783861
    15  H    4.500709   3.335496   2.136395   2.680498   4.035591
    16  H    4.009835   2.635633   2.137148   3.377181   4.534912
    17  C    4.568640   3.396596   2.499500   3.237357   4.460982
    18  H    5.593822   4.352929   3.437994   4.157795   5.451035
    19  H    4.714226   3.760452   2.697045   2.943361   4.101774
    20  N    4.421717   3.329559   3.004277   3.957076   4.927079
    21  H    3.599760   2.695728   2.648147   3.552042   4.296786
    22  H    5.224364   4.246034   3.899985   4.685951   5.605212
                    6          7          8          9         10
     6  C    0.000000
     7  H    2.121809   0.000000
     8  H    3.375250   2.475568   0.000000
     9  H    3.374624   4.922419   4.275461   0.000000
    10  O    2.416324   4.533563   5.223537   2.574924   0.000000
    11  H    2.493460   4.550524   5.627300   3.453166   0.965646
    12  O    1.375645   2.585460   4.514853   4.533208   2.823474
    13  H    1.927958   3.466916   5.234574   4.546623   2.446473
    14  C    4.293600   4.665953   2.721886   2.720627   4.882058
    15  H    4.791119   5.440444   3.644951   2.523026   4.933108
    16  H    4.793425   4.709737   2.409892   3.730329   5.733795
    17  C    5.009284   5.401321   3.534275   3.279523   5.443929
    18  H    6.061155   6.405954   4.356047   4.025340   6.370549
    19  H    4.857045   5.632412   4.161521   2.767476   4.873610
    20  N    5.112365   5.032769   3.188789   4.300838   6.040759
    21  H    4.303684   4.161589   2.667996   4.098343   5.453650
    22  H    5.826810   5.799657   4.130036   4.925213   6.614516
                   11         12         13         14         15
    11  H    0.000000
    12  O    2.450263   0.000000
    13  H    1.995447   0.965780   0.000000
    14  C    5.624075   5.668722   6.061508   0.000000
    15  H    5.696791   6.148231   6.471431   1.091018   0.000000
    16  H    6.390415   6.143395   6.666446   1.089835   1.775822
    17  C    6.288318   6.329796   6.592555   1.535063   2.148908
    18  H    7.237858   7.396386   7.656337   2.159673   2.423792
    19  H    5.781660   6.111426   6.214737   2.159768   2.504683
    20  N    6.803961   6.338301   6.678393   2.445915   3.372177
    21  H    6.147404   5.458376   5.814929   2.642213   3.663382
    22  H    7.410527   6.983348   7.237016   3.339744   4.157021
                   16         17         18         19         20
    16  H    0.000000
    17  C    2.142595   0.000000
    18  H    2.504368   1.094067   0.000000
    19  H    3.049651   1.103813   1.778653   0.000000
    20  N    2.608222   1.453163   2.064696   2.144990   0.000000
    21  H    2.880265   2.034581   2.917276   2.453548   1.015467
    22  H    3.561780   2.042228   2.374607   2.432340   1.014056
                   21         22
    21  H    0.000000
    22  H    1.640852   0.000000
 Stoichiometry    C8H11NO2
 Framework group  C1[X(C8H11NO2)]
 Deg. of freedom    60
 Full point group                 C1      NOp   1
 Largest Abelian subgroup         C1      NOp   1
 Largest concise Abelian subgroup C1      NOp   1
                         Standard orientation:                         
 ---------------------------------------------------------------------
 Center     Atomic      Atomic             Coordinates (Angstroms)
 Number     Number       Type             X           Y           Z
 ---------------------------------------------------------------------
      1          6           0        0.964959   -1.571853   -0.282433
      2          6           0       -0.336888   -1.253821   -0.624700
      3          6           0       -0.769200    0.065595   -0.627655
      4          6           0        0.138389    1.067155   -0.309106
      5          6           0        1.450189    0.763268    0.012193
      6          6           0        1.862910   -0.572809    0.055266
      7          1           0        1.305095   -2.594958   -0.263837
      8          1           0       -1.027289   -2.042274   -0.882674
      9          1           0       -0.156167    2.105252   -0.318108
     10          8           0        2.321815    1.786366    0.304909
     11          1           0        3.222620    1.517088    0.084654
     12          8           0        3.149803   -0.911144    0.404312
     13          1           0        3.514542   -0.236413    0.991199
     14          6           0       -2.198857    0.414189   -0.926004
     15          1           0       -2.244191    1.336262   -1.507422
     16          1           0       -2.669330   -0.387871   -1.494419
     17          6           0       -2.993704    0.612865    0.372135
     18          1           0       -3.995213    0.981009    0.130408
     19          1           0       -2.486796    1.378163    0.985132
     20          7           0       -3.150070   -0.660519    1.054575
     21          1           0       -2.236806   -1.045188    1.276282
     22          1           0       -3.655713   -0.536754    1.924814
 ---------------------------------------------------------------------
 Rotational constants (GHZ):           2.1950288           0.6560437           0.5687929
 Standard basis: def2TZVP (5D, 7F)
 There are   462 symmetry adapted cartesian basis functions of A   symmetry.
 There are   407 symmetry adapted basis functions of A   symmetry.
   407 basis functions,   649 primitive gaussians,   462 cartesian basis functions
    41 alpha electrons       41 beta electrons
       nuclear repulsion energy       605.6751795771 Hartrees.
 NAtoms=   22 NActive=   22 NUniq=   22 SFac= 1.00D+00 NAtFMM=   60 NAOKFM=F Big=F
 Integral buffers will be    131072 words long.
 Raffenetti 2 integral format.
 Two-electron integral symmetry is turned on.
 ------------------------------------------------------------------------------
 Polarizable Continuum Model (PCM)
 =================================
 Model                : PCM.
 Atomic radii         : SMD-Coulomb.
 Polarization charges : Total charges.
 Charge compensation  : None.
 Solution method      : On-the-fly selection.
 Cavity type          : VdW (van der Waals Surface) (Alpha=1.000).
 Cavity algorithm     : GePol (No added spheres)
                        Default sphere list used, NSphG=   22.
                        Lebedev-Laikov grids with approx.  5.0 points / Ang**2.
                        Smoothing algorithm: York/Karplus (Gamma=1.0000).
                        Polarization charges: spherical gaussians, with
                                              point-specific exponents (IZeta= 3).
                        Self-potential: point-specific (ISelfS= 7).
                        Self-field    : sphere-specific E.n sum rule (ISelfD= 2).
 1st derivatives      : Analytical E(r).r(x)/FMM algorithm (CHGder, D1EAlg=3).
                        Cavity 1st derivative terms included.
 Solvent              : Water, Eps=  78.355300 Eps(inf)=   1.777849
 ------------------------------------------------------------------------------
 ------------------------------------------------------------------------------
 Atomic radii for non-electrostatic terms: SMD-CDS.
 ------------------------------------------------------------------------------
 Nuclear repulsion after PCM non-electrostatic terms =      605.6803294087 Hartrees.
 One-electron integrals computed using PRISM.
   1 Symmetry operations used in ECPInt.
 ECPInt:  NShTT=   13695 NPrTT=   41316 LenC2=   12978 LenP2D=   30181.
 LDataN:  DoStor=T MaxTD1= 6 Len=  172
 NBasis=   407 RedAO= T EigKep=  8.49D-06  NBF=   407
 NBsUse=   407 1.00D-06 EigRej= -1.00D+00 NBFU=   407
 ExpMin= 9.52D-02 ExpMax= 2.70D+04 ExpMxC= 9.22D+02 IAcc=3 IRadAn=         5 AccDes= 0.00D+00
 Harris functional with IExCor= 1009 and IRadAn=       5 diagonalized for initial guess.
 HarFok:  IExCor= 1009 AccDes= 0.00D+00 IRadAn=         5 IDoV= 1 UseB2=F ITyADJ=14
 ICtDFT=  3500011 ScaDFX=  1.000000  1.000000  1.000000  1.000000
 FoFCou: FMM=F IPFlag=           0 FMFlag=      100000 FMFlg1=           0
         NFxFlg=           0 DoJE=T BraDBF=F KetDBF=T FulRan=T
         wScrn=  0.000000 ICntrl=       500 IOpCl=  0 I1Cent=   200000004 NGrid=           0
         NMat0=    1 NMatS0=      1 NMatT0=    0 NMatD0=    1 NMtDS0=    0 NMtDT0=    0
 Petite list used in FoFCou.
 Requested convergence on RMS density matrix=1.00D-08 within 128 cycles.
 Requested convergence on MAX density matrix=1.00D-06.
 Requested convergence on             energy=1.00D-06.
 No special actions if energy rises.
 Inv3:  Mode=1 IEnd=     7960923.
 Iteration    1 A*A^-1 deviation from unit magnitude is 4.33D-15 for   1621.
 Iteration    1 A*A^-1 deviation from orthogonality  is 2.29D-15 for   1624    310.
 Iteration    1 A^-1*A deviation from unit magnitude is 4.55D-15 for   1621.
 Iteration    1 A^-1*A deviation from orthogonality  is 2.55D-15 for   1625    298.
 Error on total polarization charges =  0.05024
 SCF Done:  E(RM062X) =  -516.672573384     A.U. after   13 cycles
            NFock= 13  Conv=0.81D-08     -V/T= 2.0047
 SMD-CDS (non-electrostatic) energy       (kcal/mol) =       3.23
 (included in total energy above)

 **********************************************************************

            Population analysis using the SCF Density.

 **********************************************************************

 Orbital symmetries:
       Occupied  (A) (A) (A) (A) (A) (A) (A) (A) (A) (A) (A) (A)
                 (A) (A) (A) (A) (A) (A) (A) (A) (A) (A) (A) (A)
                 (A) (A) (A) (A) (A) (A) (A) (A) (A) (A) (A) (A)
                 (A) (A) (A) (A) (A)
       Virtual   (A) (A) (A) (A) (A) (A) (A) (A) (A) (A) (A) (A)
                 (A) (A) (A) (A) (A) (A) (A) (A) (A) (A) (A) (A)
                 (A) (A) (A) (A) (A) (A) (A) (A) (A) (A) (A) (A)
                 (A) (A) (A) (A) (A) (A) (A) (A) (A) (A) (A) (A)
                 (A) (A) (A) (A) (A) (A) (A) (A) (A) (A) (A) (A)
                 (A) (A) (A) (A) (A) (A) (A) (A) (A) (A) (A) (A)
                 (A) (A) (A) (A) (A) (A) (A) (A) (A) (A) (A) (A)
                 (A) (A) (A) (A) (A) (A) (A) (A) (A) (A) (A) (A)
                 (A) (A) (A) (A) (A) (A) (A) (A) (A) (A) (A) (A)
                 (A) (A) (A) (A) (A) (A) (A) (A) (A) (A) (A) (A)
                 (A) (A) (A) (A) (A) (A) (A) (A) (A) (A) (A) (A)
                 (A) (A) (A) (A) (A) (A) (A) (A) (A) (A) (A) (A)
                 (A) (A) (A) (A) (A) (A) (A) (A) (A) (A) (A) (A)
                 (A) (A) (A) (A) (A) (A) (A) (A) (A) (A) (A) (A)
                 (A) (A) (A) (A) (A) (A) (A) (A) (A) (A) (A) (A)
                 (A) (A) (A) (A) (A) (A) (A) (A) (A) (A) (A) (A)
                 (A) (A) (A) (A) (A) (A) (A) (A) (A) (A) (A) (A)
                 (A) (A) (A) (A) (A) (A) (A) (A) (A) (A) (A) (A)
                 (A) (A) (A) (A) (A) (A) (A) (A) (A) (A) (A) (A)
                 (A) (A) (A) (A) (A) (A) (A) (A) (A) (A) (A) (A)
                 (A) (A) (A) (A) (A) (A) (A) (A) (A) (A) (A) (A)
                 (A) (A) (A) (A) (A) (A) (A) (A) (A) (A) (A) (A)
                 (A) (A) (A) (A) (A) (A) (A) (A) (A) (A) (A) (A)
                 (A) (A) (A) (A) (A) (A) (A) (A) (A) (A) (A) (A)
                 (A) (A) (A) (A) (A) (A) (A) (A) (A) (A) (A) (A)
                 (A) (A) (A) (A) (A) (A) (A) (A) (A) (A) (A) (A)
                 (A) (A) (A) (A) (A) (A) (A) (A) (A) (A) (A) (A)
                 (A) (A) (A) (A) (A) (A) (A) (A) (A) (A) (A) (A)
                 (A) (A) (A) (A) (A) (A) (A) (A) (A) (A) (A) (A)
                 (A) (A) (A) (A) (A) (A) (A) (A) (A) (A) (A) (A)
                 (A) (A) (A) (A) (A) (A)
 The electronic state is 1-A.
 Alpha  occ. eigenvalues --  -19.65749 -19.65671 -14.71739 -10.60249 -10.60027
 Alpha  occ. eigenvalues --  -10.54966 -10.54168 -10.53765 -10.53523 -10.53234
 Alpha  occ. eigenvalues --  -10.52589  -1.19744  -1.16945  -0.98740  -0.96011
 Alpha  occ. eigenvalues --   -0.86940  -0.84294  -0.79590  -0.70987  -0.70431
 Alpha  occ. eigenvalues --   -0.67287  -0.64130  -0.58219  -0.57670  -0.56227
 Alpha  occ. eigenvalues --   -0.52863  -0.52722  -0.51340  -0.49735  -0.48062
 Alpha  occ. eigenvalues --   -0.47296  -0.45965  -0.45248  -0.43754  -0.41530
 Alpha  occ. eigenvalues --   -0.40426  -0.39217  -0.38653  -0.30688  -0.29976
 Alpha  occ. eigenvalues --   -0.27273
 Alpha virt. eigenvalues --    0.02331   0.03867   0.06551   0.07850   0.10229
 Alpha virt. eigenvalues --    0.10628   0.12253   0.12639   0.13777   0.14838
 Alpha virt. eigenvalues --    0.15150   0.17492   0.17645   0.18143   0.18847
 Alpha virt. eigenvalues --    0.20602   0.21270   0.22392   0.22885   0.24349
 Alpha virt. eigenvalues --    0.25352   0.26847   0.27597   0.28427   0.29438
 Alpha virt. eigenvalues --    0.30073   0.31598   0.33371   0.34209   0.34863
 Alpha virt. eigenvalues --    0.35568   0.35995   0.37029   0.37208   0.38141
 Alpha virt. eigenvalues --    0.39276   0.39447   0.40211   0.40490   0.41233
 Alpha virt. eigenvalues --    0.41807   0.43760   0.44475   0.45060   0.45833
 Alpha virt. eigenvalues --    0.46707   0.47629   0.47788   0.49180   0.49310
 Alpha virt. eigenvalues --    0.50767   0.50988   0.51822   0.52757   0.52985
 Alpha virt. eigenvalues --    0.54677   0.55738   0.56112   0.56771   0.58241
 Alpha virt. eigenvalues --    0.59407   0.59917   0.60381   0.61801   0.63204
 Alpha virt. eigenvalues --    0.65093   0.65405   0.67452   0.67530   0.69243
 Alpha virt. eigenvalues --    0.70820   0.70958   0.73033   0.75048   0.75736
 Alpha virt. eigenvalues --    0.77002   0.77978   0.78384   0.81853   0.82033
 Alpha virt. eigenvalues --    0.82225   0.85791   0.86560   0.88402   0.88697
 Alpha virt. eigenvalues --    0.90076   0.91328   0.92522   0.93653   0.94975
 Alpha virt. eigenvalues --    0.96781   0.99868   1.02546   1.04721   1.06097
 Alpha virt. eigenvalues --    1.09122   1.10262   1.12286   1.12449   1.14620
 Alpha virt. eigenvalues --    1.16947   1.19444   1.21869   1.22062   1.23565
 Alpha virt. eigenvalues --    1.24929   1.26310   1.28240   1.29030   1.30549
 Alpha virt. eigenvalues --    1.31469   1.34175   1.36202   1.37621   1.38609
 Alpha virt. eigenvalues --    1.40105   1.40774   1.40929   1.44593   1.45319
 Alpha virt. eigenvalues --    1.47007   1.47899   1.49433   1.51447   1.52062
 Alpha virt. eigenvalues --    1.55068   1.56803   1.58898   1.59808   1.60956
 Alpha virt. eigenvalues --    1.62447   1.65166   1.66085   1.66793   1.67260
 Alpha virt. eigenvalues --    1.69255   1.71209   1.72791   1.74920   1.75224
 Alpha virt. eigenvalues --    1.76332   1.77695   1.78446   1.79257   1.80936
 Alpha virt. eigenvalues --    1.82277   1.84843   1.87239   1.89056   1.89711
 Alpha virt. eigenvalues --    1.92558   1.93246   1.94205   1.96762   1.97034
 Alpha virt. eigenvalues --    1.99204   2.00222   2.00974   2.02719   2.04430
 Alpha virt. eigenvalues --    2.05849   2.07436   2.08535   2.10250   2.12543
 Alpha virt. eigenvalues --    2.13808   2.15515   2.18907   2.19770   2.22106
 Alpha virt. eigenvalues --    2.23524   2.25079   2.26209   2.26497   2.28985
 Alpha virt. eigenvalues --    2.29648   2.32587   2.33796   2.33991   2.35791
 Alpha virt. eigenvalues --    2.37936   2.40184   2.43134   2.44193   2.45302
 Alpha virt. eigenvalues --    2.49852   2.50827   2.51752   2.52601   2.55834
 Alpha virt. eigenvalues --    2.57000   2.58919   2.60646   2.61201   2.63238
 Alpha virt. eigenvalues --    2.65413   2.66028   2.66741   2.68157   2.68345
 Alpha virt. eigenvalues --    2.69518   2.70090   2.72879   2.74055   2.75806
 Alpha virt. eigenvalues --    2.76403   2.78391   2.78450   2.79176   2.80866
 Alpha virt. eigenvalues --    2.82306   2.84787   2.85783   2.87737   2.88799
 Alpha virt. eigenvalues --    2.89916   2.91930   2.93145   2.94182   2.95434
 Alpha virt. eigenvalues --    2.97764   2.97926   2.99765   3.01074   3.01874
 Alpha virt. eigenvalues --    3.03083   3.06310   3.07763   3.08276   3.11336
 Alpha virt. eigenvalues --    3.11872   3.12837   3.14473   3.17258   3.17606
 Alpha virt. eigenvalues --    3.18889   3.19341   3.20178   3.22387   3.23295
 Alpha virt. eigenvalues --    3.25464   3.26410   3.26650   3.28736   3.30426
 Alpha virt. eigenvalues --    3.32003   3.33507   3.36232   3.36519   3.37445
 Alpha virt. eigenvalues --    3.38337   3.40313   3.40665   3.42477   3.43878
 Alpha virt. eigenvalues --    3.44519   3.45231   3.48248   3.48730   3.49210
 Alpha virt. eigenvalues --    3.51174   3.51737   3.53725   3.56166   3.58511
 Alpha virt. eigenvalues --    3.60698   3.64653   3.66857   3.69179   3.71774
 Alpha virt. eigenvalues --    3.74771   3.78702   3.81207   3.82228   3.84990
 Alpha virt. eigenvalues --    3.85049   3.85843   3.89746   3.91759   3.94893
 Alpha virt. eigenvalues --    3.99014   4.00166   4.02730   4.03348   4.06651
 Alpha virt. eigenvalues --    4.09338   4.10695   4.15583   4.15946   4.16627
 Alpha virt. eigenvalues --    4.18893   4.20710   4.23756   4.26674   4.28517
 Alpha virt. eigenvalues --    4.29783   4.33591   4.34085   4.36516   4.38862
 Alpha virt. eigenvalues --    4.43152   4.44307   4.47265   4.52108   4.54889
 Alpha virt. eigenvalues --    4.57315   4.61957   4.67478   4.69079   4.72123
 Alpha virt. eigenvalues --    4.75819   4.79439   4.83121   4.84134   4.84965
 Alpha virt. eigenvalues --    4.87974   4.90145   4.93264   4.94454   5.04275
 Alpha virt. eigenvalues --    5.05345   5.10261   5.12455   5.19155   5.25598
 Alpha virt. eigenvalues --    5.27000   5.29326   5.30252   5.33275   5.40992
 Alpha virt. eigenvalues --    5.42285   5.43389   5.49177   5.53395   5.54551
 Alpha virt. eigenvalues --    5.64433   5.72236   5.78245   5.84446   5.90289
 Alpha virt. eigenvalues --    5.99538   6.05853   6.28233   6.30851   6.49744
 Alpha virt. eigenvalues --    6.51093   6.56223   6.67385   6.71010   6.76642
 Alpha virt. eigenvalues --    6.79158   6.94635   6.97812   7.15386   7.31299
 Alpha virt. eigenvalues --   22.27283  22.55627  22.70318  22.87669  22.90774
 Alpha virt. eigenvalues --   22.99347  23.10168  23.50788  32.09837  43.97812
 Alpha virt. eigenvalues --   44.21316
          Condensed to atoms (all electrons):
               1          2          3          4          5          6
     1  C    5.234019   0.338247   0.047325  -0.135283   0.094790   0.275275
     2  C    0.338247   5.397514   0.229079   0.005986  -0.140413   0.080875
     3  C    0.047325   0.229079   5.388662   0.384973   0.051964  -0.156143
     4  C   -0.135283   0.005986   0.384973   5.348322   0.273996   0.088441
     5  C    0.094790  -0.140413   0.051964   0.273996   5.200726   0.207751
     6  C    0.275275   0.080875  -0.156143   0.088441   0.207751   5.226557
     7  H    0.412201  -0.032087   0.009457  -0.004629   0.013089  -0.041482
     8  H   -0.032244   0.439093  -0.067731   0.010771  -0.003997   0.010946
     9  H   -0.005367   0.012840  -0.033249   0.394047  -0.031211   0.012516
    10  O    0.013356  -0.000804   0.000445  -0.036240   0.262959  -0.076658
    11  H    0.005976  -0.001564   0.001471   0.004259  -0.025150  -0.036236
    12  O   -0.031874   0.001995  -0.000161   0.014604  -0.078869   0.255843
    13  H    0.000846   0.001432  -0.001094   0.006418  -0.032110  -0.027387
    14  C    0.006476  -0.064895   0.209009  -0.054549   0.003416   0.000114
    15  H   -0.001813   0.014159  -0.039347  -0.014056  -0.001196   0.000749
    16  H   -0.000381   0.003668  -0.083241   0.007955  -0.000983   0.000537
    17  C    0.000961  -0.002958  -0.051787  -0.016552   0.003922  -0.000158
    18  H   -0.000056  -0.001065   0.014030   0.001320  -0.000131   0.000036
    19  H   -0.001090   0.012389  -0.026206  -0.003290  -0.000573   0.000531
    20  N    0.001757  -0.006070   0.021697  -0.001285   0.001168  -0.000769
    21  H    0.001568  -0.013310   0.023770   0.000639  -0.000023  -0.000594
    22  H    0.000073  -0.000703  -0.001040  -0.000278   0.000012  -0.000014
               7          8          9         10         11         12
     1  C    0.412201  -0.032244  -0.005367   0.013356   0.005976  -0.031874
     2  C   -0.032087   0.439093   0.012840  -0.000804  -0.001564   0.001995
     3  C    0.009457  -0.067731  -0.033249   0.000445   0.001471  -0.000161
     4  C   -0.004629   0.010771   0.394047  -0.036240   0.004259   0.014604
     5  C    0.013089  -0.003997  -0.031211   0.262959  -0.025150  -0.078869
     6  C   -0.041482   0.010946   0.012516  -0.076658  -0.036236   0.255843
     7  H    0.458233  -0.004385   0.000047  -0.000154   0.000033   0.005246
     8  H   -0.004385   0.451934  -0.000028   0.000017  -0.000006  -0.000136
     9  H    0.000047  -0.000028   0.451113   0.006802  -0.001007  -0.000186
    10  O   -0.000154   0.000017   0.006802   8.023278   0.313061  -0.004335
    11  H    0.000033  -0.000006  -0.001007   0.313061   0.351064   0.011782
    12  O    0.005246  -0.000136  -0.000186  -0.004335   0.011782   8.029024
    13  H   -0.000979   0.000021   0.000003   0.011800  -0.004446   0.314017
    14  C   -0.000182  -0.000912   0.000758  -0.000410   0.000022   0.000023
    15  H   -0.000001   0.000632   0.001065  -0.000043  -0.000007  -0.000000
    16  H   -0.000072   0.001617   0.000335   0.000004  -0.000001   0.000001
    17  C    0.000019  -0.000744  -0.000745   0.000060  -0.000002   0.000002
    18  H   -0.000001  -0.000097  -0.000091  -0.000001  -0.000000   0.000000
    19  H   -0.000009   0.000450   0.002093  -0.000005  -0.000000   0.000000
    20  N   -0.000012   0.004906  -0.000310  -0.000000   0.000000  -0.000001
    21  H    0.000016  -0.002252  -0.000137  -0.000000  -0.000001   0.000002
    22  H    0.000002  -0.000166  -0.000020   0.000000  -0.000000  -0.000000
              13         14         15         16         17         18
     1  C    0.000846   0.006476  -0.001813  -0.000381   0.000961  -0.000056
     2  C    0.001432  -0.064895   0.014159   0.003668  -0.002958  -0.001065
     3  C   -0.001094   0.209009  -0.039347  -0.083241  -0.051787   0.014030
     4  C    0.006418  -0.054549  -0.014056   0.007955  -0.016552   0.001320
     5  C   -0.032110   0.003416  -0.001196  -0.000983   0.003922  -0.000131
     6  C   -0.027387   0.000114   0.000749   0.000537  -0.000158   0.000036
     7  H   -0.000979  -0.000182  -0.000001  -0.000072   0.000019  -0.000001
     8  H    0.000021  -0.000912   0.000632   0.001617  -0.000744  -0.000097
     9  H    0.000003   0.000758   0.001065   0.000335  -0.000745  -0.000091
    10  O    0.011800  -0.000410  -0.000043   0.000004   0.000060  -0.000001
    11  H   -0.004446   0.000022  -0.000007  -0.000001  -0.000002  -0.000000
    12  O    0.314017   0.000023  -0.000000   0.000001   0.000002   0.000000
    13  H    0.351009   0.000015   0.000002   0.000000  -0.000004   0.000000
    14  C    0.000015   5.303528   0.426439   0.447034   0.248964  -0.045279
    15  H    0.000002   0.426439   0.499965  -0.009179  -0.054266  -0.004075
    16  H    0.000000   0.447034  -0.009179   0.491155  -0.035315  -0.003977
    17  C   -0.000004   0.248964  -0.054266  -0.035315   5.070835   0.421587
    18  H    0.000000  -0.045279  -0.004075  -0.003977   0.421587   0.532674
    19  H    0.000001  -0.050508   0.004568   0.006568   0.462664  -0.030601
    20  N   -0.000001  -0.083112   0.005838   0.008202   0.206114  -0.032750
    21  H    0.000001  -0.015381  -0.000487  -0.000260  -0.044732   0.007235
    22  H    0.000000   0.013998  -0.000439  -0.000836  -0.045925  -0.004584
              19         20         21         22
     1  C   -0.001090   0.001757   0.001568   0.000073
     2  C    0.012389  -0.006070  -0.013310  -0.000703
     3  C   -0.026206   0.021697   0.023770  -0.001040
     4  C   -0.003290  -0.001285   0.000639  -0.000278
     5  C   -0.000573   0.001168  -0.000023   0.000012
     6  C    0.000531  -0.000769  -0.000594  -0.000014
     7  H   -0.000009  -0.000012   0.000016   0.000002
     8  H    0.000450   0.004906  -0.002252  -0.000166
     9  H    0.002093  -0.000310  -0.000137  -0.000020
    10  O   -0.000005  -0.000000  -0.000000   0.000000
    11  H   -0.000000   0.000000  -0.000001  -0.000000
    12  O    0.000000  -0.000001   0.000002  -0.000000
    13  H    0.000001  -0.000001   0.000001   0.000000
    14  C   -0.050508  -0.083112  -0.015381   0.013998
    15  H    0.004568   0.005838  -0.000487  -0.000439
    16  H    0.006568   0.008202  -0.000260  -0.000836
    17  C    0.462664   0.206114  -0.044732  -0.045925
    18  H   -0.030601  -0.032750   0.007235  -0.004584
    19  H    0.544124  -0.060568  -0.004766  -0.005777
    20  N   -0.060568   6.844756   0.366714   0.370571
    21  H   -0.004766   0.366714   0.438291  -0.024442
    22  H   -0.005777   0.370571  -0.024442   0.433167
 Mulliken charges:
               1
     1  C   -0.224762
     2  C   -0.273406
     3  C    0.078118
     4  C   -0.275571
     5  C    0.200862
     6  C    0.179270
     7  H    0.185653
     8  H    0.192311
     9  H    0.190734
    10  O   -0.513131
    11  H    0.380754
    12  O   -0.516976
    13  H    0.380456
    14  C   -0.344568
    15  H    0.171492
    16  H    0.167170
    17  C   -0.161939
    18  H    0.145825
    19  H    0.150005
    20  N   -0.646847
    21  H    0.268149
    22  H    0.266402
 Sum of Mulliken charges =  -0.00000
 Mulliken charges with hydrogens summed into heavy atoms:
               1
     1  C   -0.039110
     2  C   -0.081095
     3  C    0.078118
     4  C   -0.084837
     5  C    0.200862
     6  C    0.179270
    10  O   -0.132377
    12  O   -0.136520
    14  C   -0.005906
    17  C    0.133892
    20  N   -0.112296
 Electronic spatial extent (au):  <R**2>=           2032.6621
 Charge=             -0.0000 electrons
 Dipole moment (field-independent basis, Debye):
    X=              1.4469    Y=              1.5635    Z=              1.3733  Tot=              2.5345
 Quadrupole moment (field-independent basis, Debye-Ang):
   XX=            -57.7595   YY=            -68.1321   ZZ=            -64.2161
   XY=             -0.5762   XZ=              1.0135   YZ=             -0.7175
 Traceless Quadrupole moment (field-independent basis, Debye-Ang):
   XX=              5.6097   YY=             -4.7628   ZZ=             -0.8469
   XY=             -0.5762   XZ=              1.0135   YZ=             -0.7175
 Octapole moment (field-independent basis, Debye-Ang**2):
  XXX=             72.9681  YYY=             -6.6477  ZZZ=             18.9091  XYY=             -0.9987
  XXY=             46.2779  XXZ=             24.6001  XZZ=             -4.0219  YZZ=             -0.3933
  YYZ=             -4.6652  XYZ=             -0.8465
 Hexadecapole moment (field-independent basis, Debye-Ang**3):
 XXXX=          -1696.0400 YYYY=           -519.1740 ZZZZ=           -218.7733 XXXY=             45.5687
 XXXZ=             20.2884 YYYX=            -18.8745 YYYZ=             -1.1499 ZZZX=            -16.0138
 ZZZY=             -9.2102 XXYY=           -439.9717 XXZZ=           -289.1649 YYZZ=           -129.3916
 XXYZ=              0.7307 YYXZ=             -2.1859 ZZXY=              9.2646
 N-N= 6.056803294087D+02 E-N=-2.417147332133D+03  KE= 5.142474820517D+02
   1 Symmetry operations used in ECPInt.
 ECPInt:  NShTT=   13695 NPrTT=   41316 LenC2=   12978 LenP2D=   30181.
 LDataN:  DoStor=T MaxTD1= 7 Len=  274
 D1PCM: PCM CHGder 1st derivatives, ID1Alg=3 FixD1E=F DoIter=F DoCFld=F I1PDM=0.
 Calling FoFJK, ICntrl=      2127 FMM=F ISym2X=0 I1Cent= 0 IOpClX= 0 NMat=1 NMatS=1 NMatT=0.
 ***** Axes restored to original set *****
 -------------------------------------------------------------------
 Center     Atomic                   Forces (Hartrees/Bohr)
 Number     Number              X              Y              Z
 -------------------------------------------------------------------
      1        6          -0.000695577   -0.001748324    0.006240119
      2        6          -0.000508314    0.000360921   -0.001363847
      3        6          -0.000542708    0.002306089   -0.002997301
      4        6           0.000950576   -0.000237483    0.005022294
      5        6           0.002452877    0.001938159    0.000010367
      6        6          -0.001743933   -0.001673000   -0.002586179
      7        1           0.003044423    0.001176804    0.000491741
      8        1           0.001383387    0.001399964   -0.002055807
      9        1          -0.003370060   -0.001208927   -0.001108666
     10        8           0.001203393   -0.000369327   -0.001555639
     11        1          -0.002931015    0.000134595    0.001636193
     12        8          -0.000688602    0.001438691   -0.000425023
     13        1           0.002631222   -0.000838643    0.001652350
     14        6          -0.000551442   -0.008180849   -0.001929649
     15        1          -0.000022607    0.000676556   -0.000213009
     16        1          -0.001039474    0.001413360   -0.000457548
     17        6          -0.005548006    0.002307769   -0.000274999
     18        1          -0.000963018   -0.000079862    0.002975545
     19        1           0.000842070    0.003219606   -0.003369011
     20        7           0.005896826    0.000300785   -0.001788870
     21        1           0.000209117   -0.002343063   -0.000186053
     22        1          -0.000009137    0.000006180    0.002282992
 -------------------------------------------------------------------
 Cartesian Forces:  Max     0.008180849 RMS     0.002339413

 GradGradGradGradGradGradGradGradGradGradGradGradGradGradGradGradGradGrad
 Berny optimization.
 FormGI is forming the generalized inverse of G from B-inverse, IUseBI=4.
 Internal  Forces:  Max     0.006153781 RMS     0.001865528
 Search for a local minimum.
 Step number   1 out of a maximum of  116
 All quantities printed in internal units (Hartrees-Bohrs-Radians)
 Mixed Optimization -- RFO/linear search
 Second derivative matrix not updated -- first step.
 ITU=  0
     Eigenvalues ---    0.00302   0.00746   0.00989   0.01636   0.02014
     Eigenvalues ---    0.02015   0.02152   0.02177   0.02190   0.02251
     Eigenvalues ---    0.02268   0.02277   0.02291   0.02300   0.04379
     Eigenvalues ---    0.04386   0.04463   0.05569   0.05614   0.08975
     Eigenvalues ---    0.08985   0.12565   0.12600   0.15998   0.15999
     Eigenvalues ---    0.16000   0.16000   0.16000   0.16000   0.16000
     Eigenvalues ---    0.21929   0.22001   0.22367   0.23476   0.24598
     Eigenvalues ---    0.24986   0.24994   0.24997   0.28961   0.32222
     Eigenvalues ---    0.33264   0.34347   0.34695   0.34832   0.36080
     Eigenvalues ---    0.36101   0.36198   0.37834   0.42870   0.43555
     Eigenvalues ---    0.45069   0.45300   0.46659   0.47735   0.48067
     Eigenvalues ---    0.48434   0.49907   0.49924   0.54249   0.54276
 RFO step:  Lambda=-2.37620246D-03 EMin= 3.02128439D-03
 Linear search not attempted -- first point.
 Iteration  1 RMS(Cart)=  0.05494037 RMS(Int)=  0.00185859
 Iteration  2 RMS(Cart)=  0.00258841 RMS(Int)=  0.00007321
 Iteration  3 RMS(Cart)=  0.00000452 RMS(Int)=  0.00007317
 Iteration  4 RMS(Cart)=  0.00000000 RMS(Int)=  0.00007317
 Variable       Old X    -DE/DX   Delta X   Delta X   Delta X     New X
                                 (Linear)    (Quad)   (Total)
    R1        2.61377   0.00543   0.00000   0.01141   0.01141   2.62518
    R2        2.61742  -0.00083   0.00000  -0.00192  -0.00193   2.61549
    R3        2.03774   0.00328   0.00000   0.00899   0.00899   2.04673
    R4        2.62377   0.00314   0.00000   0.00705   0.00706   2.63082
    R5        2.03956   0.00283   0.00000   0.00779   0.00779   2.04735
    R6        2.62415   0.00395   0.00000   0.00848   0.00848   2.63262
    R7        2.83739   0.00338   0.00000   0.01040   0.01040   2.84779
    R8        2.61602   0.00080   0.00000   0.00139   0.00139   2.61741
    R9        2.03923   0.00370   0.00000   0.01017   0.01017   2.04940
   R10        2.64379   0.00033   0.00000   0.00020   0.00020   2.64399
   R11        2.59942   0.00112   0.00000   0.00223   0.00223   2.60165
   R12        2.59959   0.00187   0.00000   0.00373   0.00373   2.60332
   R13        1.82481   0.00091   0.00000   0.00166   0.00166   1.82647
   R14        1.82506   0.00059   0.00000   0.00108   0.00108   1.82613
   R15        2.06172   0.00011   0.00000   0.00031   0.00031   2.06203
   R16        2.05949   0.00081   0.00000   0.00231   0.00231   2.06180
   R17        2.90085  -0.00283   0.00000  -0.00970  -0.00970   2.89115
   R18        2.06749  -0.00224   0.00000  -0.00649  -0.00649   2.06100
   R19        2.08590  -0.00462   0.00000  -0.01379  -0.01379   2.07211
   R20        2.74608   0.00615   0.00000   0.01616   0.01616   2.76224
   R21        1.91896  -0.00032   0.00000  -0.00071  -0.00071   1.91824
   R22        1.91629  -0.00085   0.00000  -0.00186  -0.00186   1.91443
    A1        2.09981   0.00050   0.00000   0.00214   0.00213   2.10194
    A2        2.11685  -0.00042   0.00000  -0.00211  -0.00211   2.11474
    A3        2.06651  -0.00008   0.00000  -0.00006  -0.00006   2.06645
    A4        2.10842  -0.00036   0.00000  -0.00019  -0.00019   2.10823
    A5        2.08662   0.00018   0.00000   0.00009   0.00009   2.08672
    A6        2.08809   0.00018   0.00000   0.00008   0.00008   2.08818
    A7        2.07306  -0.00208   0.00000  -0.00704  -0.00703   2.06603
    A8        2.11475   0.00150   0.00000   0.00537   0.00537   2.12011
    A9        2.09491   0.00057   0.00000   0.00169   0.00168   2.09660
   A10        2.11093   0.00109   0.00000   0.00457   0.00456   2.11549
   A11        2.11008  -0.00110   0.00000  -0.00575  -0.00576   2.10432
   A12        2.06209   0.00001   0.00000   0.00109   0.00108   2.06317
   A13        2.09016   0.00066   0.00000   0.00096   0.00095   2.09111
   A14        2.07896  -0.00429   0.00000  -0.01616  -0.01616   2.06280
   A15        2.11393   0.00363   0.00000   0.01520   0.01521   2.12913
   A16        2.08297   0.00019   0.00000  -0.00085  -0.00087   2.08210
   A17        2.08397  -0.00421   0.00000  -0.01595  -0.01595   2.06801
   A18        2.11608   0.00402   0.00000   0.01667   0.01666   2.13274
   A19        1.91257   0.00479   0.00000   0.02949   0.02949   1.94207
   A20        1.91310   0.00441   0.00000   0.02719   0.02719   1.94029
   A21        1.91949  -0.00070   0.00000  -0.00135  -0.00140   1.91810
   A22        1.92177  -0.00143   0.00000  -0.00618  -0.00630   1.91547
   A23        1.93375   0.00341   0.00000   0.01898   0.01892   1.95267
   A24        1.90297  -0.00027   0.00000  -0.01364  -0.01367   1.88930
   A25        1.89628  -0.00101   0.00000  -0.00323  -0.00325   1.89302
   A26        1.88892  -0.00003   0.00000   0.00506   0.00505   1.89397
   A27        1.90784  -0.00172   0.00000  -0.00639  -0.00679   1.90105
   A28        1.89819  -0.00116   0.00000  -0.01077  -0.01078   1.88741
   A29        1.91712   0.00376   0.00000   0.02109   0.02099   1.93811
   A30        1.88576  -0.00021   0.00000  -0.01513  -0.01519   1.87057
   A31        1.87562   0.00077   0.00000   0.02031   0.02023   1.89585
   A32        1.97813  -0.00153   0.00000  -0.00951  -0.00938   1.96874
   A33        1.91527   0.00036   0.00000  -0.00580  -0.00595   1.90933
   A34        1.92807  -0.00070   0.00000  -0.01221  -0.01235   1.91572
   A35        1.88317  -0.00136   0.00000  -0.02419  -0.02450   1.85867
    D1       -0.00761  -0.00010   0.00000  -0.00323  -0.00326  -0.01087
    D2       -3.13815  -0.00006   0.00000  -0.00215  -0.00216  -3.14032
    D3        3.12610  -0.00022   0.00000  -0.00771  -0.00774   3.11836
    D4       -0.00444  -0.00018   0.00000  -0.00663  -0.00664  -0.01109
    D5       -0.02957  -0.00012   0.00000  -0.00473  -0.00472  -0.03429
    D6        3.13142   0.00003   0.00000   0.00298   0.00290   3.13433
    D7        3.11968  -0.00000   0.00000  -0.00037  -0.00035   3.11933
    D8       -0.00251   0.00014   0.00000   0.00734   0.00727   0.00476
    D9        0.02490   0.00017   0.00000   0.00691   0.00691   0.03181
   D10       -3.08371   0.00014   0.00000   0.00610   0.00611  -3.07761
   D11       -3.12775   0.00014   0.00000   0.00583   0.00581  -3.12194
   D12        0.04682   0.00011   0.00000   0.00502   0.00501   0.05183
   D13       -0.00482  -0.00009   0.00000  -0.00281  -0.00281  -0.00763
   D14        3.12230  -0.00027   0.00000  -0.01011  -0.01010   3.11220
   D15        3.10418  -0.00004   0.00000  -0.00194  -0.00194   3.10223
   D16       -0.05188  -0.00022   0.00000  -0.00923  -0.00924  -0.06112
   D17       -2.49199   0.00086   0.00000   0.02494   0.02493  -2.46706
   D18       -0.39457  -0.00083   0.00000   0.00326   0.00329  -0.39128
   D19        1.69447   0.00039   0.00000   0.01768   0.01766   1.71213
   D20        0.68299   0.00088   0.00000   0.02428   0.02428   0.70727
   D21        2.78041  -0.00081   0.00000   0.00260   0.00264   2.78305
   D22       -1.41374   0.00041   0.00000   0.01703   0.01700  -1.39673
   D23       -0.03217  -0.00012   0.00000  -0.00505  -0.00507  -0.03723
   D24        3.12709  -0.00016   0.00000  -0.00491  -0.00493   3.12216
   D25        3.12350   0.00006   0.00000   0.00210   0.00211   3.12562
   D26       -0.00042   0.00003   0.00000   0.00225   0.00225   0.00182
   D27        0.04917   0.00023   0.00000   0.00878   0.00879   0.05795
   D28       -3.11219  -0.00001   0.00000   0.00055   0.00048  -3.11171
   D29       -3.11045   0.00019   0.00000   0.00830   0.00832  -3.10214
   D30        0.01137  -0.00006   0.00000   0.00007   0.00001   0.01139
   D31       -2.65915   0.00163   0.00000   0.07197   0.07198  -2.58717
   D32        0.50036   0.00162   0.00000   0.07228   0.07227   0.57263
   D33       -2.67285   0.00166   0.00000   0.07387   0.07387  -2.59898
   D34        0.48852   0.00185   0.00000   0.08194   0.08194   0.57046
   D35        3.02462  -0.00086   0.00000   0.05109   0.05112   3.07574
   D36        0.96943   0.00104   0.00000   0.07909   0.07900   1.04843
   D37       -1.20465   0.00126   0.00000   0.08429   0.08427  -1.12039
   D38        0.91409  -0.00145   0.00000   0.04306   0.04311   0.95720
   D39       -1.14110   0.00045   0.00000   0.07106   0.07099  -1.07011
   D40        2.96801   0.00066   0.00000   0.07626   0.07626   3.04426
   D41       -1.14995  -0.00055   0.00000   0.05829   0.05838  -1.09157
   D42        3.07804   0.00135   0.00000   0.08629   0.08627  -3.11887
   D43        0.90397   0.00156   0.00000   0.09149   0.09153   0.99549
   D44        1.04456   0.00090   0.00000   0.01733   0.01708   1.06164
   D45        3.11879  -0.00099   0.00000  -0.02361  -0.02368   3.09511
   D46        3.11840   0.00138   0.00000   0.03330   0.03340  -3.13138
   D47       -1.09055  -0.00051   0.00000  -0.00763  -0.00737  -1.09792
   D48       -1.08253   0.00070   0.00000   0.02238   0.02227  -1.06027
   D49        0.99170  -0.00119   0.00000  -0.01856  -0.01850   0.97320
         Item               Value     Threshold  Converged?
 Maximum Force            0.006154     0.000450     NO 
 RMS     Force            0.001866     0.000300     NO 
 Maximum Displacement     0.224967     0.001800     NO 
 RMS     Displacement     0.055788     0.001200     NO 
 Predicted change in Energy=-1.285170D-03
 GradGradGradGradGradGradGradGradGradGradGradGradGradGradGradGradGradGrad

                          Input orientation:                          
 ---------------------------------------------------------------------
 Center     Atomic      Atomic             Coordinates (Angstroms)
 Number     Number       Type             X           Y           Z
 ---------------------------------------------------------------------
      1          6           0        1.527877   11.303713  106.513713
      2          6           0        1.043475   11.265177  105.212289
      3          6           0       -0.151902   10.616147  104.915677
      4          6           0       -0.869527   10.039812  105.961453
      5          6           0       -0.408276   10.098126  107.266166
      6          6           0        0.821022   10.706298  107.542827
      7          1           0        2.467693   11.788475  106.747855
      8          1           0        1.608929   11.736450  104.417339
      9          1           0       -1.818471    9.549169  105.774617
     10          8           0       -1.178769    9.528006  108.254449
     11          1           0       -1.082111   10.001542  109.091465
     12          8           0        1.342678   10.761108  108.816682
     13          1           0        1.094807    9.980266  109.329202
     14          6           0       -0.650582   10.494425  103.498809
     15          1           0       -1.734286   10.619599  103.474458
     16          1           0       -0.202548   11.274924  102.881963
     17          6           0       -0.306071    9.134699  102.887955
     18          1           0       -0.745407    9.073039  101.891629
     19          1           0       -0.778568    8.356370  103.498931
     20          7           0        1.140848    8.962971  102.771552
     21          1           0        1.561086    9.008733  103.694435
     22          1           0        1.348103    8.040952  102.406532
 ---------------------------------------------------------------------
                    Distance matrix (angstroms):
                    1          2          3          4          5
     1  C    0.000000
     2  C    1.389185   0.000000
     3  C    2.418289   1.392173   0.000000
     4  C    2.765860   2.392142   1.393125   0.000000
     5  C    2.401732   2.772725   2.420511   1.385074   0.000000
     6  C    1.384060   2.406914   2.802967   2.408922   1.399139
     7  H    1.083084   2.158750   3.404924   3.848804   3.375963
     8  H    2.142105   1.083413   2.145681   3.377220   3.856040
     9  H    3.850030   3.384025   2.157237   1.084496   2.124787
    10  O    3.675491   4.148599   3.658676   2.369685   1.376735
    11  H    3.892620   4.600315   4.322064   3.137456   1.948101
    12  O    2.373265   3.651747   4.180027   3.683266   2.430943
    13  H    3.141025   4.313073   4.630100   3.899216   2.555243
    14  C    3.806609   2.529803   1.506988   2.513807   3.795886
    15  H    4.510741   3.339578   2.140342   2.696128   4.050591
    16  H    4.023035   2.642553   2.138351   3.384320   4.544053
    17  C    4.605877   3.429685   2.515971   3.253167   4.484124
    18  H    5.613144   4.362608   3.446490   4.184916   5.481798
    19  H    4.805770   3.836222   2.739794   2.984337   4.166880
    20  N    4.430873   3.356611   3.000244   3.921309   4.887732
    21  H    3.635432   2.768275   2.647553   3.479996   4.221662
    22  H    5.248511   4.284939   3.895825   4.642282   5.561733
                    6          7          8          9         10
     6  C    0.000000
     7  H    2.124761   0.000000
     8  H    3.383886   2.484248   0.000000
     9  H    3.381189   4.932837   4.286429   0.000000
    10  O    2.427745   4.547113   5.231817   2.561100   0.000000
    11  H    2.552818   4.613756   5.665603   3.427586   0.966527
    12  O    1.377620   2.569277   4.514023   4.551463   2.862576
    13  H    1.947618   3.437701   5.241651   4.616070   2.555148
    14  C    4.308664   4.685564   2.737100   2.727046   4.881502
    15  H    4.805074   5.453258   3.648763   2.538432   4.934419
    16  H    4.805693   4.726420   2.419057   3.735892   5.733092
    17  C    5.040644   5.443815   3.574262   3.285111   5.451197
    18  H    6.087468   6.424993   4.360719   4.056570   6.393769
    19  H    4.943070   5.733504   4.238934   2.771807   4.914046
    20  N    5.089847   5.055193   3.258819   4.256712   5.980138
    21  H    4.270778   4.227562   2.822290   4.005075   5.345108
    22  H    5.810629   5.843329   4.215221   4.862705   6.541754
                   11         12         13         14         15
    11  H    0.000000
    12  O    2.555787   0.000000
    13  H    2.189964   0.966349   0.000000
    14  C    5.630893   5.685418   6.107719   0.000000
    15  H    5.688418   6.166611   6.533800   1.091181   0.000000
    16  H    6.399457   6.154074   6.702698   1.091060   1.768254
    17  C    6.311671   6.365012   6.645833   1.529929   2.142127
    18  H    7.267264   7.427384   7.715371   2.147640   2.423855
    19  H    5.837394   6.209744   6.335506   2.141883   2.456868
    20  N    6.779490   6.310121   6.636248   2.466470   3.391885
    21  H    6.090985   5.418112   5.736889   2.671521   3.674609
    22  H    7.378223   6.963426   7.193640   3.347737   4.158246
                   16         17         18         19         20
    16  H    0.000000
    17  C    2.142735   0.000000
    18  H    2.474622   1.090635   0.000000
    19  H    3.038158   1.096513   1.760152   0.000000
    20  N    2.676197   1.461717   2.084308   2.140374   0.000000
    21  H    2.984315   2.037781   2.928166   2.436755   1.015090
    22  H    3.617890   2.040673   2.390213   2.411546   1.013071
                   21         22
    21  H    0.000000
    22  H    1.625009   0.000000
 Stoichiometry    C8H11NO2
 Framework group  C1[X(C8H11NO2)]
 Deg. of freedom    60
 Full point group                 C1      NOp   1
 Largest Abelian subgroup         C1      NOp   1
 Largest concise Abelian subgroup C1      NOp   1
                         Standard orientation:                         
 ---------------------------------------------------------------------
 Center     Atomic      Atomic             Coordinates (Angstroms)
 Number     Number       Type             X           Y           Z
 ---------------------------------------------------------------------
      1          6           0        0.994044   -1.570253   -0.283107
      2          6           0       -0.316371   -1.273691   -0.636233
      3          6           0       -0.773710    0.041216   -0.638543
      4          6           0        0.125153    1.055381   -0.315571
      5          6           0        1.441065    0.771225    0.010098
      6          6           0        1.873446   -0.558448    0.061166
      7          1           0        1.350231   -2.592801   -0.258621
      8          1           0       -0.993115   -2.076885   -0.902088
      9          1           0       -0.185877    2.094176   -0.332802
     10          8           0        2.281906    1.823108    0.296329
     11          1           0        3.190424    1.628216    0.030272
     12          8           0        3.161204   -0.898574    0.413063
     13          1           0        3.522445   -0.276652    1.058468
     14          6           0       -2.212492    0.373304   -0.939602
     15          1           0       -2.265891    1.282574   -1.540477
     16          1           0       -2.667168   -0.439246   -1.508323
     17          6           0       -3.027341    0.587888    0.337371
     18          1           0       -4.039173    0.890064    0.064664
     19          1           0       -2.579219    1.420627    0.892415
     20          7           0       -3.103435   -0.641562    1.124312
     21          1           0       -2.167485   -0.928362    1.392921
     22          1           0       -3.608772   -0.466784    1.984778
 ---------------------------------------------------------------------
 Rotational constants (GHZ):           2.1568158           0.6548330           0.5694315
 Standard basis: def2TZVP (5D, 7F)
 There are   462 symmetry adapted cartesian basis functions of A   symmetry.
 There are   407 symmetry adapted basis functions of A   symmetry.
   407 basis functions,   649 primitive gaussians,   462 cartesian basis functions
    41 alpha electrons       41 beta electrons
       nuclear repulsion energy       604.1426954577 Hartrees.
 NAtoms=   22 NActive=   22 NUniq=   22 SFac= 1.00D+00 NAtFMM=   60 NAOKFM=F Big=F
 Integral buffers will be    131072 words long.
 Raffenetti 2 integral format.
 Two-electron integral symmetry is turned on.
 ------------------------------------------------------------------------------
 Polarizable Continuum Model (PCM)
 =================================
 Model                : PCM.
 Atomic radii         : SMD-Coulomb.
 Polarization charges : Total charges.
 Charge compensation  : None.
 Solution method      : On-the-fly selection.
 Cavity type          : VdW (van der Waals Surface) (Alpha=1.000).
 Cavity algorithm     : GePol (No added spheres)
                        Default sphere list used, NSphG=   22.
                        Lebedev-Laikov grids with approx.  5.0 points / Ang**2.
                        Smoothing algorithm: York/Karplus (Gamma=1.0000).
                        Polarization charges: spherical gaussians, with
                                              point-specific exponents (IZeta= 3).
                        Self-potential: point-specific (ISelfS= 7).
                        Self-field    : sphere-specific E.n sum rule (ISelfD= 2).
 1st derivatives      : Analytical E(r).r(x)/FMM algorithm (CHGder, D1EAlg=3).
                        Cavity 1st derivative terms included.
 Solvent              : Water, Eps=  78.355300 Eps(inf)=   1.777849
 ------------------------------------------------------------------------------
 ------------------------------------------------------------------------------
 Atomic radii for non-electrostatic terms: SMD-CDS.
 ------------------------------------------------------------------------------
 Nuclear repulsion after PCM non-electrostatic terms =      604.1478859016 Hartrees.
 One-electron integrals computed using PRISM.
   1 Symmetry operations used in ECPInt.
 ECPInt:  NShTT=   13695 NPrTT=   41316 LenC2=   12977 LenP2D=   30164.
 LDataN:  DoStor=T MaxTD1= 6 Len=  172
 NBasis=   407 RedAO= T EigKep=  8.73D-06  NBF=   407
 NBsUse=   407 1.00D-06 EigRej= -1.00D+00 NBFU=   407
 Initial guess from the checkpoint file:  "/home/data/vip13t32/docs/g16out/mol_for_md/dop/water.chk"
 B after Tr=    -0.000000   -0.000000   -0.000000
         Rot=    0.999955    0.008362   -0.000734   -0.004469 Ang=   1.09 deg.
 ExpMin= 9.52D-02 ExpMax= 2.70D+04 ExpMxC= 9.22D+02 IAcc=3 IRadAn=         5 AccDes= 0.00D+00
 Harris functional with IExCor= 1009 and IRadAn=       5 diagonalized for initial guess.
 HarFok:  IExCor= 1009 AccDes= 0.00D+00 IRadAn=         5 IDoV= 1 UseB2=F ITyADJ=14
 ICtDFT=  3500011 ScaDFX=  1.000000  1.000000  1.000000  1.000000
 FoFCou: FMM=F IPFlag=           0 FMFlag=      100000 FMFlg1=           0
         NFxFlg=           0 DoJE=T BraDBF=F KetDBF=T FulRan=T
         wScrn=  0.000000 ICntrl=       500 IOpCl=  0 I1Cent=   200000004 NGrid=           0
         NMat0=    1 NMatS0=      1 NMatT0=    0 NMatD0=    1 NMtDS0=    0 NMtDT0=    0
 Petite list used in FoFCou.
 Requested convergence on RMS density matrix=1.00D-08 within 128 cycles.
 Requested convergence on MAX density matrix=1.00D-06.
 Requested convergence on             energy=1.00D-06.
 No special actions if energy rises.
 Inv3:  Mode=1 IEnd=     8127948.
 Iteration    1 A*A^-1 deviation from unit magnitude is 4.66D-15 for   1625.
 Iteration    1 A*A^-1 deviation from orthogonality  is 1.67D-15 for    699    257.
 Iteration    1 A^-1*A deviation from unit magnitude is 4.66D-15 for   1646.
 Iteration    1 A^-1*A deviation from orthogonality  is 3.19D-15 for   1644    294.
 Error on total polarization charges =  0.05023
 SCF Done:  E(RM062X) =  -516.673437925     A.U. after   11 cycles
            NFock= 11  Conv=0.53D-08     -V/T= 2.0049
 SMD-CDS (non-electrostatic) energy       (kcal/mol) =       3.26
 (included in total energy above)
   1 Symmetry operations used in ECPInt.
 ECPInt:  NShTT=   13695 NPrTT=   41316 LenC2=   12977 LenP2D=   30164.
 LDataN:  DoStor=T MaxTD1= 7 Len=  274
 D1PCM: PCM CHGder 1st derivatives, ID1Alg=3 FixD1E=F DoIter=F DoCFld=F I1PDM=0.
 Calling FoFJK, ICntrl=      2127 FMM=F ISym2X=0 I1Cent= 0 IOpClX= 0 NMat=1 NMatS=1 NMatT=0.
 ***** Axes restored to original set *****
 -------------------------------------------------------------------
 Center     Atomic                   Forces (Hartrees/Bohr)
 Number     Number              X              Y              Z
 -------------------------------------------------------------------
      1        6          -0.000006628   -0.000499696   -0.000132796
      2        6          -0.000216787   -0.000011788   -0.000385653
      3        6           0.000240320    0.000517348   -0.000724184
      4        6           0.000131873    0.000243252    0.000389164
      5        6          -0.000027797    0.001779421    0.001458253
      6        6          -0.000581305   -0.002141871    0.000195292
      7        1          -0.000042552   -0.000154222   -0.000182669
      8        1           0.000024300   -0.000040050    0.000079851
      9        1           0.000006335    0.000154103   -0.000006524
     10        8           0.000986457   -0.001499671   -0.000652229
     11        1           0.001924817    0.000781804   -0.000166165
     12        8          -0.001007113    0.001765520    0.000046986
     13        1          -0.001655147   -0.000761051   -0.000666521
     14        6           0.002077887   -0.002400184   -0.000788659
     15        1          -0.000138458    0.000041750   -0.000000169
     16        1          -0.000305304    0.001008195    0.000055453
     17        6          -0.002028717    0.000833021    0.002431219
     18        1           0.000577284    0.000142058   -0.000047031
     19        1           0.000004156   -0.000396307   -0.000317152
     20        7           0.000699944    0.001924298   -0.001559868
     21        1          -0.000350023   -0.000420335    0.000789199
     22        1          -0.000313543   -0.000865595    0.000184204
 -------------------------------------------------------------------
 Cartesian Forces:  Max     0.002431219 RMS     0.000948483

 GradGradGradGradGradGradGradGradGradGradGradGradGradGradGradGradGradGrad
 Berny optimization.
 Using GEDIIS/GDIIS optimizer.
 FormGI is forming the generalized inverse of G from B-inverse, IUseBI=4.
 Internal  Forces:  Max     0.003868114 RMS     0.000988113
 Search for a local minimum.
 Step number   2 out of a maximum of  116
 All quantities printed in internal units (Hartrees-Bohrs-Radians)
 Mixed Optimization -- En-DIIS/RFO-DIIS
 Update second derivatives using D2CorX and points    1    2
 DE= -8.65D-04 DEPred=-1.29D-03 R= 6.73D-01
 TightC=F SS=  1.41D+00  RLast= 2.88D-01 DXNew= 5.0454D-01 8.6256D-01
 Trust test= 6.73D-01 RLast= 2.88D-01 DXMaxT set to 5.05D-01
 ITU=  1  0
 Use linear search instead of GDIIS.
     Eigenvalues ---    0.00306   0.00745   0.00988   0.01632   0.01949
     Eigenvalues ---    0.02017   0.02174   0.02179   0.02250   0.02267
     Eigenvalues ---    0.02277   0.02290   0.02298   0.02534   0.04208
     Eigenvalues ---    0.04338   0.04401   0.05469   0.05606   0.09114
     Eigenvalues ---    0.09174   0.12583   0.12729   0.15952   0.15997
     Eigenvalues ---    0.15999   0.15999   0.16000   0.16000   0.17402
     Eigenvalues ---    0.21665   0.21965   0.22383   0.23471   0.24593
     Eigenvalues ---    0.24974   0.24995   0.28249   0.29499   0.32520
     Eigenvalues ---    0.33202   0.34251   0.34696   0.34803   0.35872
     Eigenvalues ---    0.36088   0.36178   0.37465   0.42573   0.43551
     Eigenvalues ---    0.45084   0.45339   0.47457   0.47630   0.48064
     Eigenvalues ---    0.48405   0.49908   0.51083   0.54250   0.54270
 RFO step:  Lambda=-4.19767167D-04 EMin= 3.06108323D-03
 Quartic linear search produced a step of -0.20352.
 Iteration  1 RMS(Cart)=  0.02713948 RMS(Int)=  0.00026242
 Iteration  2 RMS(Cart)=  0.00039179 RMS(Int)=  0.00002923
 Iteration  3 RMS(Cart)=  0.00000009 RMS(Int)=  0.00002923
 Variable       Old X    -DE/DX   Delta X   Delta X   Delta X     New X
                                 (Linear)    (Quad)   (Total)
    R1        2.62518   0.00013  -0.00232   0.00456   0.00224   2.62741
    R2        2.61549   0.00002   0.00039  -0.00076  -0.00036   2.61513
    R3        2.04673  -0.00015  -0.00183   0.00303   0.00120   2.04793
    R4        2.63082  -0.00023  -0.00144   0.00243   0.00098   2.63181
    R5        2.04735  -0.00006  -0.00159   0.00276   0.00118   2.04853
    R6        2.63262   0.00041  -0.00173   0.00392   0.00219   2.63481
    R7        2.84779  -0.00077  -0.00212   0.00198  -0.00014   2.84766
    R8        2.61741  -0.00039  -0.00028  -0.00021  -0.00048   2.61693
    R9        2.04940  -0.00007  -0.00207   0.00364   0.00157   2.05097
   R10        2.64399  -0.00387  -0.00004  -0.00679  -0.00683   2.63716
   R11        2.60165  -0.00192  -0.00045  -0.00220  -0.00266   2.59900
   R12        2.60332  -0.00154  -0.00076  -0.00105  -0.00181   2.60151
   R13        1.82647   0.00043  -0.00034   0.00125   0.00091   1.82738
   R14        1.82613   0.00068  -0.00022   0.00139   0.00117   1.82731
   R15        2.06203   0.00015  -0.00006   0.00045   0.00039   2.06242
   R16        2.06180   0.00056  -0.00047   0.00213   0.00166   2.06346
   R17        2.89115  -0.00199   0.00197  -0.00905  -0.00707   2.88407
   R18        2.06100  -0.00020   0.00132  -0.00288  -0.00156   2.05944
   R19        2.07211   0.00010   0.00281  -0.00490  -0.00209   2.07002
   R20        2.76224   0.00003  -0.00329   0.00610   0.00281   2.76505
   R21        1.91824   0.00056   0.00015   0.00071   0.00085   1.91910
   R22        1.91443   0.00065   0.00038   0.00044   0.00082   1.91525
    A1        2.10194  -0.00040  -0.00043  -0.00036  -0.00079   2.10115
    A2        2.11474   0.00006   0.00043  -0.00085  -0.00043   2.11430
    A3        2.06645   0.00034   0.00001   0.00128   0.00128   2.06773
    A4        2.10823  -0.00039   0.00004  -0.00063  -0.00060   2.10763
    A5        2.08672   0.00014  -0.00002   0.00008   0.00006   2.08677
    A6        2.08818   0.00025  -0.00002   0.00059   0.00057   2.08875
    A7        2.06603  -0.00010   0.00143  -0.00229  -0.00087   2.06515
    A8        2.12011   0.00015  -0.00109   0.00208   0.00099   2.12110
    A9        2.09660  -0.00005  -0.00034   0.00006  -0.00028   2.09632
   A10        2.11549  -0.00041  -0.00093   0.00045  -0.00048   2.11501
   A11        2.10432   0.00018   0.00117  -0.00159  -0.00043   2.10390
   A12        2.06317   0.00024  -0.00022   0.00123   0.00100   2.06418
   A13        2.09111   0.00058  -0.00019   0.00179   0.00156   2.09268
   A14        2.06280   0.00288   0.00329   0.00317   0.00640   2.06919
   A15        2.12913  -0.00347  -0.00309  -0.00523  -0.00838   2.12075
   A16        2.08210   0.00074   0.00018   0.00161   0.00176   2.08386
   A17        2.06801   0.00283   0.00325   0.00302   0.00622   2.07423
   A18        2.13274  -0.00358  -0.00339  -0.00508  -0.00851   2.12423
   A19        1.94207  -0.00328  -0.00600  -0.00521  -0.01121   1.93085
   A20        1.94029  -0.00297  -0.00553  -0.00455  -0.01009   1.93020
   A21        1.91810   0.00007   0.00028  -0.00205  -0.00176   1.91634
   A22        1.91547  -0.00037   0.00128  -0.00331  -0.00204   1.91343
   A23        1.95267  -0.00005  -0.00385   0.00735   0.00350   1.95618
   A24        1.88930  -0.00023   0.00278  -0.00765  -0.00486   1.88444
   A25        1.89302  -0.00023   0.00066  -0.00352  -0.00284   1.89018
   A26        1.89397   0.00081  -0.00103   0.00880   0.00777   1.90174
   A27        1.90105   0.00014   0.00138  -0.00322  -0.00176   1.89929
   A28        1.88741   0.00065   0.00219   0.00163   0.00382   1.89123
   A29        1.93811  -0.00060  -0.00427   0.00540   0.00114   1.93925
   A30        1.87057  -0.00007   0.00309  -0.00494  -0.00183   1.86874
   A31        1.89585  -0.00014  -0.00412   0.00325  -0.00086   1.89499
   A32        1.96874   0.00004   0.00191  -0.00259  -0.00071   1.96803
   A33        1.90933  -0.00098   0.00121  -0.00931  -0.00812   1.90121
   A34        1.91572  -0.00077   0.00251  -0.01061  -0.00812   1.90760
   A35        1.85867   0.00023   0.00499  -0.01284  -0.00791   1.85076
    D1       -0.01087   0.00001   0.00066  -0.00029   0.00039  -0.01048
    D2       -3.14032  -0.00012   0.00044  -0.00415  -0.00370   3.13917
    D3        3.11836   0.00025   0.00158   0.00582   0.00743   3.12579
    D4       -0.01109   0.00012   0.00135   0.00196   0.00334  -0.00775
    D5       -0.03429   0.00029   0.00096   0.00849   0.00945  -0.02484
    D6        3.13433   0.00078  -0.00059   0.02679   0.02631  -3.12255
    D7        3.11933   0.00006   0.00007   0.00256   0.00261   3.12194
    D8        0.00476   0.00055  -0.00148   0.02086   0.01946   0.02422
    D9        0.03181  -0.00020  -0.00141  -0.00452  -0.00593   0.02588
   D10       -3.07761  -0.00008  -0.00124   0.00072  -0.00052  -3.07813
   D11       -3.12194  -0.00007  -0.00118  -0.00067  -0.00184  -3.12378
   D12        0.05183   0.00005  -0.00102   0.00457   0.00357   0.05540
   D13       -0.00763   0.00002   0.00057   0.00089   0.00147  -0.00616
   D14        3.11220   0.00026   0.00206   0.00592   0.00800   3.12021
   D15        3.10223  -0.00009   0.00040  -0.00424  -0.00383   3.09840
   D16       -0.06112   0.00014   0.00188   0.00080   0.00270  -0.05842
   D17       -2.46706   0.00004  -0.00507   0.01031   0.00523  -2.46183
   D18       -0.39128  -0.00042  -0.00067  -0.00235  -0.00302  -0.39430
   D19        1.71213   0.00032  -0.00359   0.01130   0.00771   1.71984
   D20        0.70727   0.00016  -0.00494   0.01568   0.01074   0.71801
   D21        2.78305  -0.00030  -0.00054   0.00302   0.00249   2.78554
   D22       -1.39673   0.00044  -0.00346   0.01668   0.01322  -1.38351
   D23       -0.03723   0.00028   0.00103   0.00730   0.00833  -0.02890
   D24        3.12216   0.00080   0.00100   0.02480   0.02590  -3.13513
   D25        3.12562   0.00005  -0.00043   0.00241   0.00196   3.12758
[...]
                 (A) (A) (A) (A) (A) (A) (A) (A) (A) (A) (A) (A)
                 (A) (A) (A) (A) (A) (A) (A) (A) (A) (A) (A) (A)
                 (A) (A) (A) (A) (A) (A) (A) (A) (A) (A) (A) (A)
                 (A) (A) (A) (A) (A) (A) (A) (A) (A) (A) (A) (A)
                 (A) (A) (A) (A) (A) (A) (A) (A) (A) (A) (A) (A)
                 (A) (A) (A) (A) (A) (A) (A) (A) (A) (A) (A) (A)
                 (A) (A) (A) (A) (A) (A) (A) (A) (A) (A) (A) (A)
                 (A) (A) (A) (A) (A) (A) (A) (A) (A) (A) (A) (A)
                 (A) (A) (A) (A) (A) (A) (A) (A) (A) (A) (A) (A)
                 (A) (A) (A) (A) (A) (A) (A) (A) (A) (A) (A) (A)
                 (A) (A) (A) (A) (A) (A) (A) (A) (A) (A) (A) (A)
                 (A) (A) (A) (A) (A) (A) (A) (A) (A) (A) (A) (A)
                 (A) (A) (A) (A) (A) (A) (A) (A) (A) (A) (A) (A)
                 (A) (A) (A) (A) (A) (A) (A) (A) (A) (A) (A) (A)
                 (A) (A) (A) (A) (A) (A) (A) (A) (A) (A) (A) (A)
                 (A) (A) (A) (A) (A) (A) (A) (A) (A) (A) (A) (A)
                 (A) (A) (A) (A) (A) (A) (A) (A) (A) (A) (A) (A)
                 (A) (A) (A) (A) (A) (A) (A) (A) (A) (A) (A) (A)
                 (A) (A) (A) (A) (A) (A) (A) (A) (A) (A) (A) (A)
                 (A) (A) (A) (A) (A) (A) (A) (A) (A) (A) (A) (A)
                 (A) (A) (A) (A) (A) (A) (A) (A) (A) (A) (A) (A)
                 (A) (A) (A) (A) (A) (A) (A) (A) (A) (A) (A) (A)
                 (A) (A) (A) (A) (A) (A)
 The electronic state is 1-A.
 Alpha  occ. eigenvalues --  -19.65603 -19.65068 -14.71924 -10.60315 -10.59568
 Alpha  occ. eigenvalues --  -10.54924 -10.54566 -10.54012 -10.53548 -10.53291
 Alpha  occ. eigenvalues --  -10.52688  -1.19413  -1.16427  -0.98642  -0.95871
 Alpha  occ. eigenvalues --   -0.86911  -0.84165  -0.79723  -0.71226  -0.69853
 Alpha  occ. eigenvalues --   -0.67226  -0.63507  -0.58590  -0.57234  -0.55918
 Alpha  occ. eigenvalues --   -0.53655  -0.52569  -0.50905  -0.49636  -0.48125
 Alpha  occ. eigenvalues --   -0.47473  -0.45334  -0.44354  -0.43962  -0.41256
 Alpha  occ. eigenvalues --   -0.39902  -0.39189  -0.38469  -0.31086  -0.29989
 Alpha  occ. eigenvalues --   -0.27796
 Alpha virt. eigenvalues --    0.02170   0.03746   0.06657   0.07745   0.10118
 Alpha virt. eigenvalues --    0.10653   0.12151   0.12516   0.13474   0.14590
 Alpha virt. eigenvalues --    0.15197   0.17523   0.17800   0.18143   0.19352
 Alpha virt. eigenvalues --    0.20695   0.21558   0.22193   0.22617   0.24296
 Alpha virt. eigenvalues --    0.25375   0.27199   0.27704   0.28658   0.29098
 Alpha virt. eigenvalues --    0.29555   0.31065   0.32823   0.33436   0.34617
 Alpha virt. eigenvalues --    0.35493   0.35810   0.36781   0.37939   0.38656
 Alpha virt. eigenvalues --    0.38933   0.39123   0.39967   0.40448   0.41494
 Alpha virt. eigenvalues --    0.42243   0.43060   0.44350   0.45608   0.45958
 Alpha virt. eigenvalues --    0.46543   0.47813   0.47979   0.48370   0.49563
 Alpha virt. eigenvalues --    0.50384   0.50820   0.51603   0.52615   0.54130
 Alpha virt. eigenvalues --    0.54741   0.55061   0.55992   0.56700   0.58103
 Alpha virt. eigenvalues --    0.58810   0.59518   0.60554   0.62951   0.63462
 Alpha virt. eigenvalues --    0.65022   0.65968   0.67319   0.67797   0.68782
 Alpha virt. eigenvalues --    0.70599   0.72379   0.73883   0.75566   0.75724
 Alpha virt. eigenvalues --    0.77083   0.78049   0.79556   0.81723   0.82644
 Alpha virt. eigenvalues --    0.83442   0.85824   0.86682   0.88350   0.89879
 Alpha virt. eigenvalues --    0.90369   0.90618   0.92508   0.94302   0.94511
 Alpha virt. eigenvalues --    0.97623   0.99068   1.02650   1.05025   1.06025
 Alpha virt. eigenvalues --    1.08373   1.10737   1.12033   1.13808   1.14142
 Alpha virt. eigenvalues --    1.17121   1.18614   1.20709   1.22273   1.23107
 Alpha virt. eigenvalues --    1.24740   1.26016   1.27730   1.28236   1.29870
 Alpha virt. eigenvalues --    1.30978   1.33576   1.35785   1.38209   1.38831
 Alpha virt. eigenvalues --    1.40451   1.41142   1.43565   1.44139   1.44915
 Alpha virt. eigenvalues --    1.46056   1.47960   1.50142   1.51320   1.52852
 Alpha virt. eigenvalues --    1.55208   1.56132   1.58134   1.59482   1.60679
 Alpha virt. eigenvalues --    1.61435   1.64488   1.66274   1.67029   1.68374
 Alpha virt. eigenvalues --    1.69736   1.71798   1.73373   1.74259   1.75150
 Alpha virt. eigenvalues --    1.77511   1.78226   1.78445   1.79294   1.81660
 Alpha virt. eigenvalues --    1.84747   1.84966   1.87754   1.88897   1.90047
 Alpha virt. eigenvalues --    1.91910   1.92846   1.94316   1.94694   1.97191
 Alpha virt. eigenvalues --    1.99230   2.00936   2.01959   2.04104   2.04590
 Alpha virt. eigenvalues --    2.06249   2.07240   2.09423   2.10788   2.11845
 Alpha virt. eigenvalues --    2.13235   2.16583   2.18651   2.20306   2.21035
 Alpha virt. eigenvalues --    2.23496   2.23893   2.26105   2.26260   2.29806
 Alpha virt. eigenvalues --    2.29840   2.32033   2.32681   2.35797   2.38059
 Alpha virt. eigenvalues --    2.40079   2.41263   2.43589   2.45369   2.46558
 Alpha virt. eigenvalues --    2.49245   2.51324   2.51924   2.52324   2.55700
 Alpha virt. eigenvalues --    2.55929   2.58931   2.59702   2.60974   2.62524
 Alpha virt. eigenvalues --    2.63385   2.65675   2.66449   2.67544   2.68732
 Alpha virt. eigenvalues --    2.69089   2.70393   2.72474   2.73763   2.75267
 Alpha virt. eigenvalues --    2.76018   2.77087   2.78364   2.80055   2.81560
 Alpha virt. eigenvalues --    2.82300   2.83973   2.85094   2.87359   2.88104
 Alpha virt. eigenvalues --    2.89151   2.90668   2.93263   2.94555   2.95911
 Alpha virt. eigenvalues --    2.97889   2.98572   3.00350   3.01751   3.03464
 Alpha virt. eigenvalues --    3.03974   3.06676   3.07662   3.08593   3.09963
 Alpha virt. eigenvalues --    3.11724   3.12623   3.13652   3.16742   3.18058
 Alpha virt. eigenvalues --    3.18399   3.19386   3.20296   3.22329   3.22683
 Alpha virt. eigenvalues --    3.24737   3.26493   3.27692   3.28880   3.30679
 Alpha virt. eigenvalues --    3.31321   3.33830   3.34897   3.36523   3.37417
 Alpha virt. eigenvalues --    3.38134   3.40109   3.41086   3.42038   3.43613
 Alpha virt. eigenvalues --    3.43689   3.45801   3.46338   3.48750   3.49729
 Alpha virt. eigenvalues --    3.51147   3.52606   3.53695   3.55042   3.57295
 Alpha virt. eigenvalues --    3.60962   3.64333   3.67559   3.69709   3.72624
 Alpha virt. eigenvalues --    3.73792   3.76838   3.80292   3.82406   3.84955
 Alpha virt. eigenvalues --    3.86360   3.89465   3.92727   3.94472   3.96450
 Alpha virt. eigenvalues --    3.98929   3.99946   4.02143   4.04155   4.07076
 Alpha virt. eigenvalues --    4.09024   4.10554   4.14455   4.15583   4.16068
 Alpha virt. eigenvalues --    4.20115   4.20538   4.21911   4.24960   4.26864
 Alpha virt. eigenvalues --    4.29855   4.32726   4.33589   4.34673   4.40453
 Alpha virt. eigenvalues --    4.43325   4.44188   4.47915   4.50171   4.54192
 Alpha virt. eigenvalues --    4.57854   4.61621   4.66034   4.67253   4.71713
 Alpha virt. eigenvalues --    4.75306   4.79256   4.83433   4.84195   4.86044
 Alpha virt. eigenvalues --    4.88935   4.89473   4.91587   4.94752   5.03842
 Alpha virt. eigenvalues --    5.05769   5.09555   5.11104   5.19150   5.24793
 Alpha virt. eigenvalues --    5.26326   5.27439   5.30524   5.32176   5.37687
 Alpha virt. eigenvalues --    5.41441   5.47439   5.48329   5.53716   5.55600
 Alpha virt. eigenvalues --    5.63138   5.70420   5.75558   5.85814   5.90846
 Alpha virt. eigenvalues --    6.00122   6.05784   6.28856   6.34076   6.42941
 Alpha virt. eigenvalues --    6.49884   6.51874   6.65852   6.73358   6.77499
 Alpha virt. eigenvalues --    6.89593   6.95401   7.00173   7.13312   7.29898
 Alpha virt. eigenvalues --   22.26666  22.55855  22.69508  22.84784  22.90031
 Alpha virt. eigenvalues --   22.98503  23.09762  23.49353  32.08435  43.99481
 Alpha virt. eigenvalues --   44.22231
          Condensed to atoms (all electrons):
               1          2          3          4          5          6
     1  C    5.359054   0.206943   0.113688  -0.182750   0.188424   0.170192
     2  C    0.206943   5.490588   0.188520   0.031228  -0.178750   0.159439
     3  C    0.113688   0.188520   5.417440   0.352190   0.089325  -0.200751
     4  C   -0.182750   0.031228   0.352190   5.436100   0.195005   0.137920
     5  C    0.188424  -0.178750   0.089325   0.195005   5.155941   0.168285
     6  C    0.170192   0.159439  -0.200751   0.137920   0.168285   5.355218
     7  H    0.418992  -0.036587   0.011603  -0.005615   0.014270  -0.048368
     8  H   -0.035710   0.435886  -0.060060   0.011859  -0.004824   0.011744
     9  H   -0.006636   0.014238  -0.037056   0.397744  -0.033900   0.014131
    10  O    0.013763  -0.001653  -0.000169  -0.044201   0.313017  -0.099926
    11  H    0.006766  -0.001715   0.000983   0.005871  -0.022166  -0.034255
    12  O   -0.031841   0.006291  -0.001317   0.019826  -0.049751   0.193724
    13  H   -0.014278   0.003487  -0.001455   0.005809  -0.022634  -0.035709
    14  C    0.009903  -0.060218   0.205100  -0.064402   0.006921  -0.003354
    15  H   -0.002301   0.013984  -0.036428  -0.014336  -0.001984   0.001118
    16  H   -0.000969   0.004350  -0.084336   0.008759  -0.000972   0.000716
    17  C    0.001400  -0.006846  -0.050677  -0.014255   0.005733  -0.000352
    18  H   -0.000069  -0.001031   0.015698   0.001207  -0.000191   0.000043
    19  H   -0.001080   0.010283  -0.024119  -0.004338   0.000142   0.000559
    20  N    0.000678   0.000522   0.016669  -0.001236   0.000809  -0.000748
    21  H    0.002275  -0.014426   0.023689   0.000952  -0.000002  -0.000760
    22  H    0.000130  -0.000776  -0.001407  -0.000320   0.000042  -0.000035
               7          8          9         10         11         12
     1  C    0.418992  -0.035710  -0.006636   0.013763   0.006766  -0.031841
     2  C   -0.036587   0.435886   0.014238  -0.001653  -0.001715   0.006291
     3  C    0.011603  -0.060060  -0.037056  -0.000169   0.000983  -0.001317
     4  C   -0.005615   0.011859   0.397744  -0.044201   0.005871   0.019826
     5  C    0.014270  -0.004824  -0.033900   0.313017  -0.022166  -0.049751
     6  C   -0.048368   0.011744   0.014131  -0.099926  -0.034255   0.193724
     7  H    0.459745  -0.004641   0.000034  -0.000092  -0.000003   0.006553
     8  H   -0.004641   0.456105  -0.000034   0.000016  -0.000004  -0.000161
     9  H    0.000034  -0.000034   0.450344   0.006628  -0.000939  -0.000206
    10  O   -0.000092   0.000016   0.006628   8.006662   0.312342  -0.009098
    11  H   -0.000003  -0.000004  -0.000939   0.312342   0.334533   0.019888
    12  O    0.006553  -0.000161  -0.000206  -0.009098   0.019888   8.094076
    13  H   -0.001537   0.000031   0.000034   0.003630  -0.003279   0.317853
    14  C   -0.000133  -0.001972   0.000713  -0.000245   0.000047  -0.000001
    15  H   -0.000007   0.000583   0.000933  -0.000029  -0.000004   0.000000
    16  H   -0.000088   0.001472   0.000359   0.000004  -0.000001   0.000001
    17  C    0.000022  -0.001021  -0.000326   0.000048  -0.000003   0.000001
    18  H   -0.000001  -0.000048  -0.000105  -0.000000  -0.000000   0.000000
    19  H   -0.000009   0.000254   0.002352  -0.000009   0.000001   0.000000
    20  N   -0.000038   0.003915  -0.000466  -0.000001   0.000000  -0.000001
    21  H    0.000030  -0.001018  -0.000221  -0.000003  -0.000000  -0.000000
    22  H    0.000002  -0.000126  -0.000043   0.000000  -0.000000   0.000000
              13         14         15         16         17         18
     1  C   -0.014278   0.009903  -0.002301  -0.000969   0.001400  -0.000069
     2  C    0.003487  -0.060218   0.013984   0.004350  -0.006846  -0.001031
     3  C   -0.001455   0.205100  -0.036428  -0.084336  -0.050677   0.015698
     4  C    0.005809  -0.064402  -0.014336   0.008759  -0.014255   0.001207
     5  C   -0.022634   0.006921  -0.001984  -0.000972   0.005733  -0.000191
     6  C   -0.035709  -0.003354   0.001118   0.000716  -0.000352   0.000043
     7  H   -0.001537  -0.000133  -0.000007  -0.000088   0.000022  -0.000001
     8  H    0.000031  -0.001972   0.000583   0.001472  -0.001021  -0.000048
     9  H    0.000034   0.000713   0.000933   0.000359  -0.000326  -0.000105
    10  O    0.003630  -0.000245  -0.000029   0.000004   0.000048  -0.000000
    11  H   -0.003279   0.000047  -0.000004  -0.000001  -0.000003  -0.000000
    12  O    0.317853  -0.000001   0.000000   0.000001   0.000001   0.000000
    13  H    0.348019  -0.000004   0.000002   0.000001  -0.000004   0.000000
    14  C   -0.000004   5.305032   0.428502   0.444178   0.247602  -0.048091
    15  H    0.000002   0.428502   0.500806  -0.011813  -0.056862  -0.003109
    16  H    0.000001   0.444178  -0.011813   0.495998  -0.031915  -0.005181
    17  C   -0.000004   0.247602  -0.056862  -0.031915   5.075303   0.422312
    18  H    0.000000  -0.048091  -0.003109  -0.005181   0.422312   0.527892
    19  H    0.000000  -0.050624   0.002905   0.006598   0.466230  -0.030910
    20  N   -0.000001  -0.075158   0.005897   0.006933   0.207505  -0.029999
    21  H    0.000001  -0.018078  -0.000466  -0.000185  -0.042320   0.006852
    22  H    0.000000   0.014524  -0.000448  -0.000803  -0.047430  -0.004255
              19         20         21         22
     1  C   -0.001080   0.000678   0.002275   0.000130
     2  C    0.010283   0.000522  -0.014426  -0.000776
     3  C   -0.024119   0.016669   0.023689  -0.001407
     4  C   -0.004338  -0.001236   0.000952  -0.000320
     5  C    0.000142   0.000809  -0.000002   0.000042
     6  C    0.000559  -0.000748  -0.000760  -0.000035
     7  H   -0.000009  -0.000038   0.000030   0.000002
     8  H    0.000254   0.003915  -0.001018  -0.000126
     9  H    0.002352  -0.000466  -0.000221  -0.000043
    10  O   -0.000009  -0.000001  -0.000003   0.000000
    11  H    0.000001   0.000000  -0.000000  -0.000000
    12  O    0.000000  -0.000001  -0.000000   0.000000
    13  H    0.000000  -0.000001   0.000001   0.000000
    14  C   -0.050624  -0.075158  -0.018078   0.014524
    15  H    0.002905   0.005897  -0.000466  -0.000448
    16  H    0.006598   0.006933  -0.000185  -0.000803
    17  C    0.466230   0.207505  -0.042320  -0.047430
    18  H   -0.030910  -0.029999   0.006852  -0.004255
    19  H    0.540110  -0.060930  -0.004952  -0.005739
    20  N   -0.060930   6.830430   0.366823   0.370436
    21  H   -0.004952   0.366823   0.438015  -0.025389
    22  H   -0.005739   0.370436  -0.025389   0.436062
 Mulliken charges:
               1
     1  C   -0.216575
     2  C   -0.263755
     3  C    0.062872
     4  C   -0.273016
     5  C    0.177259
     6  C    0.211169
     7  H    0.185865
     8  H    0.187756
     9  H    0.192423
    10  O   -0.500683
    11  H    0.381939
    12  O   -0.565838
    13  H    0.400035
    14  C   -0.340241
    15  H    0.173061
    16  H    0.166896
    17  C   -0.174145
    18  H    0.148986
    19  H    0.153274
    20  N   -0.642041
    21  H    0.269183
    22  H    0.265576
 Sum of Mulliken charges =  -0.00000
 Mulliken charges with hydrogens summed into heavy atoms:
               1
     1  C   -0.030710
     2  C   -0.075999
     3  C    0.062872
     4  C   -0.080594
     5  C    0.177259
     6  C    0.211169
    10  O   -0.118744
    12  O   -0.165803
    14  C   -0.000284
    17  C    0.128115
    20  N   -0.107282
 Electronic spatial extent (au):  <R**2>=           2025.4165
 Charge=             -0.0000 electrons
 Dipole moment (field-independent basis, Debye):
    X=              0.7740    Y=              1.0624    Z=              2.5092  Tot=              2.8327
 Quadrupole moment (field-independent basis, Debye-Ang):
   XX=            -60.4409   YY=            -68.4426   ZZ=            -61.8132
   XY=             -4.4060   XZ=              6.8404   YZ=              0.1853
 Traceless Quadrupole moment (field-independent basis, Debye-Ang):
   XX=              3.1247   YY=             -4.8770   ZZ=              1.7523
   XY=             -4.4060   XZ=              6.8404   YZ=              0.1853
 Octapole moment (field-independent basis, Debye-Ang**2):
  XXX=             45.9934  YYY=             -8.1575  ZZZ=             24.1853  XYY=              2.3610
  XXY=             39.4387  XXZ=             32.5524  XZZ=              3.2403  YZZ=              1.3320
  YYZ=             -3.1653  XYZ=             -5.0064
 Hexadecapole moment (field-independent basis, Debye-Ang**3):
 XXXX=          -1751.8866 YYYY=           -513.6709 ZZZZ=           -223.0696 XXXY=             11.0521
 XXXZ=             78.5282 YYYX=            -26.2497 YYYZ=              2.6358 ZZZX=             -5.9273
 ZZZY=             -8.5602 XXYY=           -428.2024 XXZZ=           -272.0913 YYZZ=           -131.8200
 XXYZ=             14.2966 YYXZ=             12.7933 ZZXY=             -2.9935
 N-N= 6.052933969305D+02 E-N=-2.416417620102D+03  KE= 5.141878118708D+02
 Unable to Open any file for archive entry.
 1\1\GINC-BIO3-HORSEA-12U\FOpt\RM062X\def2TZVP\C8H11N1O2\VIP13T32\01-Ap
 r-2023\0\\# opt m062x/def2tzvp scrf=(smd,solvent=water)\\Title Card Re
 quired\\0,1\C,1.4785487495,11.3582380594,106.5413851988\C,1.0340378589
 ,11.3082368144,105.2243599746\C,-0.1471030056,10.6474754654,104.900046
 8453\C,-0.8858898653,10.0500251371,105.920603595\C,-0.452290665,10.108
 1661495,107.2343938717\C,0.7454104555,10.7549824836,107.5445181996\H,2
 .3991507476,11.8649816967,106.8028831222\H,1.6150114414,11.7825512241,
 104.4429143911\H,-1.816912297,9.5391441852,105.7014435441\O,-1.2092253
 129,9.5249452524,108.2124006144\H,-0.8446086762,9.7592736964,109.07832
 20947\O,1.1539025754,10.8365627838,108.8675273535\H,1.38484673,9.95544
 95286,109.1956889794\C,-0.6083564657,10.5246096827,103.4711885453\H,-1
 .683651011,10.7053484588,103.4140069019\H,-0.1076206753,11.276834653,1
 02.8586178824\C,-0.3217544406,9.1409639017,102.8973147029\H,-0.7060047
 048,9.0942209704,101.8779605141\H,-0.8711237453,8.3967153359,103.48533
 97313\N,1.1184303899,8.8796713075,102.8582690716\H,1.4786389949,8.8923
 444676,103.8084772263\H,1.2765629215,7.9392587455,102.5123376398\\Vers
 ion=ES64L-G16RevC.01\State=1-A\HF=-516.6740609\RMSD=7.041e-09\RMSF=7.9
 37e-06\Dipole=0.1486534,-0.9921415,0.4853543\Quadrupole=-2.0415601,-0.
 7139253,2.7554854,-1.148601,5.8753331,-2.1817988\PG=C01 [X(C8H11N1O2)]
 \\@
 The archive entry for this job was punched.


 NOBODY LOSES ALL THE TIME
 I HAD AN UNCLE NAMED
 SOL WHO WAS A BORN FAILURE AND
 NEARLY EVERYBODY SAID HE SHOULD HAVE GONE
 INTO VAUDEVILLE PERHAPS BECAUSE MY UNCLE SOL COULD
 SING MCCANN HE WAS A DIVER ON XMAS EVE LIKE HELL ITSELF WHICH
 MAY OR MAY NOT ACCOUNT FOR THE FACT THAT MY UNCLE
 SOL INDULGED IN THAT POSSIBLY MOST INEXCUSABLE
 OF ALL TO USE A HIGHFALOOTIN PHRASE
 LUXURIES THAT IS OR TO
 WIT FARMING AND BE
 IT NEEDLESSLY
 ADDED
 MY UNCLE SOL'S FARM     
 FAILED BECAUSE THE CHICKENS
 ATE THE VEGETABLES SO
 MY UNCLE SOL HAD A
 CHICKEN FARM TILL THE
 SKUNKS ATE THE CHICKENS WHEN 
 MY UNCLE SOL
 HAD A SKUNK FARM BUT
 THE SKUNKS CAUGHT COLD AND
 DIED AND SO
 MY UNCLE SOL IMITATED THE
 SKUNKS IN A SUBTLE MANNER
 OR BY DROWNING HIMSELF IN THE WATERTANK
 BUT SOMEBODY WHO'D GIVEN MY UNCLE SOL A VICTOR     
 VICTROLA AND RECORDS WHILE HE LIVED PRESENTED TO
 HIM UPON THE AUSPICIOUS OCCASION OF HIS DECEASE A
 SCRUMPTIOUS NOT TO MENTION SPLENDIFEROUS FUNERAL WITH
 TALL BOYS IN BLACK GLOVES AND FLOWERS AND EVERYTHING AND
 I REMEMBER WE ALL CRIED LIKE THE MISSOURI
 WHEN MY UNCLE SOL'S COFFIN LURCHED BECAUSE     
 SOMEBODY PRESSED A BUTTON
 (AND DOWN WENT
 MY UNCLE
 SOL
 AND STARTED A WORM FARM)
           E. E. CUMMINGS
 Job cpu time:       0 days 20 hours 13 minutes 56.9 seconds.
 Elapsed time:       0 days  1 hours 21 minutes 21.1 seconds.
 File lengths (MBytes):  RWF=    161 Int=      0 D2E=      0 Chk=     15 Scr=      1
 Normal termination of Gaussian 16 at Sat Apr  1 17:51:22 2023.
