 Entering Gaussian System, Link 0=g16
 Input=dop-vac.gjf
 Output=dop-vac.log
 Initial command:
 /home/data/vip13t32/docs/gaussian/gaussian/g16/l1.exe "/home/data/vip13t32/Rtmp/Gau-2820364.inp" -scrdir="/home/data/vip13t32/Rtmp/"
 Entering Link 1 = /home/data/vip13t32/docs/gaussian/gaussian/g16/l1.exe PID=   2820366.
  
 Copyright (c) 1988-2019, Gaussian, Inc.  All Rights Reserved.
  
 This is part of the Gaussian(R) 16 program.  It is based on
 the Gaussian(R) 09 system (copyright 2009, Gaussian, Inc.),
 the Gaussian(R) 03 system (copyright 2003, Gaussian, Inc.),
 the Gaussian(R) 98 system (copyright 1998, Gaussian, Inc.),
 the Gaussian(R) 94 system (copyright 1995, Gaussian, Inc.),
 the Gaussian 92(TM) system (copyright 1992, Gaussian, Inc.),
 the Gaussian 90(TM) system (copyright 1990, Gaussian, Inc.),
 the Gaussian 88(TM) system (copyright 1988, Gaussian, Inc.),
 the Gaussian 86(TM) system (copyright 1986, Carnegie Mellon
 University), and the Gaussian 82(TM) system (copyright 1983,
 Carnegie Mellon University). Gaussian is a federally registered
 trademark of Gaussian, Inc.
  
 This software contains proprietary and confidential information,
 including trade secrets, belonging to Gaussian, Inc.
  
 This software is provided under written license and may be
 used, copied, transmitted, or stored only in accord with that
 written license.
  
 The following legend is applicable only to US Government
 contracts under FAR:
  
                    RESTRICTED RIGHTS LEGEND
  
 Use, reproduction and disclosure by the US Government is
 subject to restrictions as set forth in subparagraphs (a)
 and (c) of the Commercial Computer Software - Restricted
 Rights clause in FAR 52.227-19.
  
 Gaussian, Inc.
 340 Quinnipiac St., Bldg. 40, Wallingford CT 06492
  
  
 ---------------------------------------------------------------
 Warning -- This program may not be used in any manner that
 competes with the business of Gaussian, Inc. or will provide
 assistance to any competitor of Gaussian, Inc.  The licensee
 of this program is prohibited from giving any competitor of
 Gaussian, Inc. access to this program.  By using this program,
 the user acknowledges that Gaussian, Inc. is engaged in the
 business of creating and licensing software in the field of
 computational chemistry and represents and warrants to the
 licensee that it is not a competitor of Gaussian, Inc. and that
 it will not use this program in any manner prohibited above.
 ---------------------------------------------------------------
  

 Cite this work as:
 Gaussian 16, Revision C.01,
 M. J. Frisch, G. W. Trucks, H. B. Schlegel, G. E. Scuseria, 
 M. A. Robb, J. R. Cheeseman, G. Scalmani, V. Barone, 
 G. A. Petersson, H. Nakatsuji, X. Li, M. Caricato, A. V. Marenich, 
 J. Bloino, B. G. Janesko, R. Gomperts, B. Mennucci, H. P. Hratchian, 
 J. V. Ortiz, A. F. Izmaylov, J. L. Sonnenberg, D. Williams-Young, 
 F. Ding, F. Lipparini, F. Egidi, J. Goings, B. Peng, A. Petrone, 
 T. Henderson, D. Ranasinghe, V. G. Zakrzewski, J. Gao, N. Rega, 
 G. Zheng, W. Liang, M. Hada, M. Ehara, K. Toyota, R. Fukuda, 
 J. Hasegawa, M. Ishida, T. Nakajima, Y. Honda, O. Kitao, H. Nakai, 
 T. Vreven, K. Throssell, J. A. Montgomery, Jr., J. E. Peralta, 
 F. Ogliaro, M. J. Bearpark, J. J. Heyd, E. N. Brothers, K. N. Kudin, 
 V. N. Staroverov, T. A. Keith, R. Kobayashi, J. Normand, 
 K. Raghavachari, A. P. Rendell, J. C. Burant, S. S. Iyengar, 
 J. Tomasi, M. Cossi, J. M. Millam, M. Klene, C. Adamo, R. Cammi, 
 J. W. Ochterski, R. L. Martin, K. Morokuma, O. Farkas, 
 J. B. Foresman, and D. J. Fox, Gaussian, Inc., Wallingford CT, 2019.
 
 ******************************************
 Gaussian 16:  ES64L-G16RevC.01  3-Jul-2019
                 1-Apr-2023 
 ******************************************
 %mem=40GB
 %chk=/home/data/vip13t32/docs/g16out/mol_for_md/dop/vac.chk
 %nprocshared=20
 Will use up to   20 processors via shared memory.
 --------------------
 # opt m062x/def2tzvp
 --------------------
 1/18=20,19=15,26=3,38=1/1,3;
 2/9=110,12=2,17=6,18=5,40=1/2;
 3/5=44,7=101,11=2,25=1,30=1,71=1,74=-55/1,2,3;
 4//1;
 5/5=2,38=5/2;
 6/7=2,8=2,9=2,10=2,28=1/1;
 7//1,2,3,16;
 1/18=20,19=15,26=3/3(2);
 2/9=110/2;
 99//99;
 2/9=110/2;
 3/5=44,7=101,11=2,25=1,30=1,71=1,74=-55/1,2,3;
 4/5=5,16=3,69=1/1;
 5/5=2,38=5/2;
 7//1,2,3,16;
 1/18=20,19=15,26=3/3(-5);
 2/9=110/2;
 6/7=2,8=2,9=2,10=2,19=2,28=1/1;
 99/9=1/99;
 -------------------
 Title Card Required
 -------------------
 Symbolic Z-matrix:
 Charge =  0 Multiplicity = 1
 C                     1.53645   11.26862   106.50389 
 C                     1.05268   11.22646   105.20879 
 C                    -0.15575   10.60627   104.92102 
 C                    -0.88803   10.053    105.96312 
 C                    -0.42564   10.10961   107.26673 
 C                     0.8143    10.6977   107.53877 
 H                     2.48069   11.73578   106.73403 
 H                     1.62698   11.67243   104.41119 
 H                    -1.83993   9.57853   105.78075 
 O                    -1.18982   9.56447   108.27221 
 H                    -1.00687   10.02254   109.10238 
 O                     1.31873   10.73981   108.8179 
 H                     0.97576   9.99376   109.32634 
 C                    -0.65315   10.491    103.50902 
 H                    -1.73651   10.61755   103.48392 
 H                    -0.1914    11.25631   102.88544 
 C                    -0.30565   9.11703   102.91923 
 H                    -0.77998   9.01371   101.93876 
 H                    -0.71369   8.33328   103.58078 
 N                     1.13036   9.01375   102.72206 
 H                     1.60763   9.12728   103.61116 
 H                     1.37286   8.1011    102.3525 
 

 GradGradGradGradGradGradGradGradGradGradGradGradGradGradGradGradGradGrad
 Berny optimization.
 Initialization pass.
                           ----------------------------
                           !    Initial Parameters    !
                           ! (Angstroms and Degrees)  !
 --------------------------                            --------------------------
 ! Name  Definition              Value          Derivative Info.                !
 --------------------------------------------------------------------------------
 ! R1    R(1,2)                  1.3831         estimate D2E/DX2                !
 ! R2    R(1,6)                  1.3851         estimate D2E/DX2                !
 ! R3    R(1,7)                  1.0783         estimate D2E/DX2                !
 ! R4    R(2,3)                  1.3884         estimate D2E/DX2                !
 ! R5    R(2,8)                  1.0793         estimate D2E/DX2                !
 ! R6    R(3,4)                  1.3886         estimate D2E/DX2                !
 ! R7    R(3,14)                 1.5015         estimate D2E/DX2                !
 ! R8    R(4,5)                  1.3843         estimate D2E/DX2                !
 ! R9    R(4,9)                  1.0791         estimate D2E/DX2                !
 ! R10   R(5,6)                  1.399          estimate D2E/DX2                !
 ! R11   R(5,10)                 1.3756         estimate D2E/DX2                !
 ! R12   R(6,12)                 1.3756         estimate D2E/DX2                !
 ! R13   R(10,11)                0.9656         estimate D2E/DX2                !
 ! R14   R(12,13)                0.9658         estimate D2E/DX2                !
 ! R15   R(14,15)                1.091          estimate D2E/DX2                !
 ! R16   R(14,16)                1.0898         estimate D2E/DX2                !
 ! R17   R(14,17)                1.5351         estimate D2E/DX2                !
 ! R18   R(17,18)                1.0941         estimate D2E/DX2                !
 ! R19   R(17,19)                1.1038         estimate D2E/DX2                !
 ! R20   R(17,20)                1.4532         estimate D2E/DX2                !
 ! R21   R(20,21)                1.0155         estimate D2E/DX2                !
 ! R22   R(20,22)                1.0141         estimate D2E/DX2                !
 ! A1    A(2,1,6)              120.3101         estimate D2E/DX2                !
 ! A2    A(2,1,7)              121.2864         estimate D2E/DX2                !
 ! A3    A(6,1,7)              118.402          estimate D2E/DX2                !
 ! A4    A(1,2,3)              120.8034         estimate D2E/DX2                !
 ! A5    A(1,2,8)              119.5548         estimate D2E/DX2                !
 ! A6    A(3,2,8)              119.6389         estimate D2E/DX2                !
 ! A7    A(2,3,4)              118.7774         estimate D2E/DX2                !
 ! A8    A(2,3,14)             121.166          estimate D2E/DX2                !
 ! A9    A(4,3,14)             120.0296         estimate D2E/DX2                !
 ! A10   A(3,4,5)              120.9472         estimate D2E/DX2                !
 ! A11   A(3,4,9)              120.8987         estimate D2E/DX2                !
 ! A12   A(5,4,9)              118.1491         estimate D2E/DX2                !
 ! A13   A(4,5,6)              119.7576         estimate D2E/DX2                !
 ! A14   A(4,5,10)             119.1154         estimate D2E/DX2                !
 ! A15   A(6,5,10)             121.1192         estimate D2E/DX2                !
 ! A16   A(1,6,5)              119.3454         estimate D2E/DX2                !
 ! A17   A(1,6,12)             119.4025         estimate D2E/DX2                !
 ! A18   A(5,6,12)             121.2426         estimate D2E/DX2                !
 ! A19   A(5,10,11)            109.5824         estimate D2E/DX2                !
 ! A20   A(6,12,13)            109.6126         estimate D2E/DX2                !
 ! A21   A(3,14,15)            109.9788         estimate D2E/DX2                !
 ! A22   A(3,14,16)            110.1095         estimate D2E/DX2                !
 ! A23   A(3,14,17)            110.7958         estimate D2E/DX2                !
 ! A24   A(15,14,16)           109.0322         estimate D2E/DX2                !
 ! A25   A(15,14,17)           108.6486         estimate D2E/DX2                !
 ! A26   A(16,14,17)           108.2271         estimate D2E/DX2                !
 ! A27   A(14,17,18)           109.3111         estimate D2E/DX2                !
 ! A28   A(14,17,19)           108.7583         estimate D2E/DX2                !
 ! A29   A(14,17,20)           109.8431         estimate D2E/DX2                !
 ! A30   A(18,17,19)           108.0463         estimate D2E/DX2                !
 ! A31   A(18,17,20)           107.4649         estimate D2E/DX2                !
 ! A32   A(19,17,20)           113.3383         estimate D2E/DX2                !
 ! A33   A(17,20,21)           109.7371         estimate D2E/DX2                !
 ! A34   A(17,20,22)           110.4705         estimate D2E/DX2                !
 ! A35   A(21,20,22)           107.8976         estimate D2E/DX2                !
 ! D1    D(6,1,2,3)             -0.4362         estimate D2E/DX2                !
 ! D2    D(6,1,2,8)           -179.803          estimate D2E/DX2                !
 ! D3    D(7,1,2,3)            179.1122         estimate D2E/DX2                !
 ! D4    D(7,1,2,8)             -0.2545         estimate D2E/DX2                !
 ! D5    D(2,1,6,5)             -1.694          estimate D2E/DX2                !
 ! D6    D(2,1,6,12)           179.4173         estimate D2E/DX2                !
 ! D7    D(7,1,6,5)            178.7447         estimate D2E/DX2                !
 ! D8    D(7,1,6,12)            -0.1441         estimate D2E/DX2                !
 ! D9    D(1,2,3,4)              1.4266         estimate D2E/DX2                !
 ! D10   D(1,2,3,14)          -176.6838         estimate D2E/DX2                !
 ! D11   D(8,2,3,4)           -179.2071         estimate D2E/DX2                !
 ! D12   D(8,2,3,14)             2.6825         estimate D2E/DX2                !
 ! D13   D(2,3,4,5)             -0.2763         estimate D2E/DX2                !
 ! D14   D(2,3,4,9)            178.8949         estimate D2E/DX2                !
 ! D15   D(14,3,4,5)           177.8562         estimate D2E/DX2                !
 ! D16   D(14,3,4,9)            -2.9727         estimate D2E/DX2                !
 ! D17   D(2,3,14,15)         -142.7805         estimate D2E/DX2                !
 ! D18   D(2,3,14,16)          -22.6072         estimate D2E/DX2                !
 ! D19   D(2,3,14,17)           97.0858         estimate D2E/DX2                !
 ! D20   D(4,3,14,15)           39.1325         estimate D2E/DX2                !
 ! D21   D(4,3,14,16)          159.3058         estimate D2E/DX2                !
 ! D22   D(4,3,14,17)          -81.0011         estimate D2E/DX2                !
 ! D23   D(3,4,5,6)             -1.8431         estimate D2E/DX2                !
 ! D24   D(3,4,5,10)           179.1691         estimate D2E/DX2                !
 ! D25   D(9,4,5,6)            178.9635         estimate D2E/DX2                !
 ! D26   D(9,4,5,10)            -0.0243         estimate D2E/DX2                !
 ! D27   D(4,5,6,1)              2.8171         estimate D2E/DX2                !
 ! D28   D(4,5,6,12)          -178.3153         estimate D2E/DX2                !
 ! D29   D(10,5,6,1)          -178.2159         estimate D2E/DX2                !
 ! D30   D(10,5,6,12)            0.6517         estimate D2E/DX2                !
 ! D31   D(4,5,10,11)         -152.3582         estimate D2E/DX2                !
 ! D32   D(6,5,10,11)           28.6683         estimate D2E/DX2                !
 ! D33   D(1,6,12,13)         -153.1429         estimate D2E/DX2                !
 ! D34   D(5,6,12,13)           27.99           estimate D2E/DX2                !
 ! D35   D(3,14,17,18)         173.2978         estimate D2E/DX2                !
 ! D36   D(3,14,17,19)          55.544          estimate D2E/DX2                !
 ! D37   D(3,14,17,20)         -69.0216         estimate D2E/DX2                !
 ! D38   D(15,14,17,18)         52.3736         estimate D2E/DX2                !
 ! D39   D(15,14,17,19)        -65.3802         estimate D2E/DX2                !
 ! D40   D(15,14,17,20)        170.0542         estimate D2E/DX2                !
 ! D41   D(16,14,17,18)        -65.8872         estimate D2E/DX2                !
 ! D42   D(16,14,17,19)        176.3589         estimate D2E/DX2                !
 ! D43   D(16,14,17,20)         51.7934         estimate D2E/DX2                !
 ! D44   D(14,17,20,21)         59.8486         estimate D2E/DX2                !
 ! D45   D(14,17,20,22)        178.6934         estimate D2E/DX2                !
 ! D46   D(18,17,20,21)        178.6713         estimate D2E/DX2                !
 ! D47   D(18,17,20,22)        -62.4839         estimate D2E/DX2                !
 ! D48   D(19,17,20,21)        -62.0246         estimate D2E/DX2                !
 ! D49   D(19,17,20,22)         56.8201         estimate D2E/DX2                !
 --------------------------------------------------------------------------------
 Trust Radius=3.00D-01 FncErr=1.00D-07 GrdErr=1.00D-06 EigMax=2.50D+02 EigMin=1.00D-04
 Number of steps in this run=    116 maximum allowed number of steps=    132.
 GradGradGradGradGradGradGradGradGradGradGradGradGradGradGradGradGradGrad

                          Input orientation:                          
 ---------------------------------------------------------------------
 Center     Atomic      Atomic             Coordinates (Angstroms)
 Number     Number       Type             X           Y           Z
 ---------------------------------------------------------------------
      1          6           0        1.536453   11.268620  106.503888
      2          6           0        1.052682   11.226465  105.208787
      3          6           0       -0.155753   10.606274  104.921025
      4          6           0       -0.888031   10.052996  105.963123
      5          6           0       -0.425643   10.109614  107.266729
      6          6           0        0.814297   10.697695  107.538769
      7          1           0        2.480689   11.735776  106.734034
      8          1           0        1.626979   11.672430  104.411190
      9          1           0       -1.839930    9.578531  105.780748
     10          8           0       -1.189822    9.564474  108.272212
     11          1           0       -1.006869   10.022544  109.102376
     12          8           0        1.318726   10.739810  108.817900
     13          1           0        0.975760    9.993760  109.326345
     14          6           0       -0.653148   10.491005  103.509019
     15          1           0       -1.736512   10.617550  103.483923
     16          1           0       -0.191404   11.256307  102.885444
     17          6           0       -0.305653    9.117026  102.919232
     18          1           0       -0.779982    9.013711  101.938763
     19          1           0       -0.713691    8.333279  103.580781
     20          7           0        1.130363    9.013750  102.722058
     21          1           0        1.607630    9.127283  103.611159
     22          1           0        1.372859    8.101100  102.352498
 ---------------------------------------------------------------------
                    Distance matrix (angstroms):
                    1          2          3          4          5
     1  C    0.000000
     2  C    1.383148   0.000000
     3  C    2.409921   1.388438   0.000000
     4  C    2.765554   2.390066   1.388638   0.000000
     5  C    2.403131   2.769102   2.412849   1.384340   0.000000
     6  C    1.385079   2.401092   2.793196   2.407534   1.399034
     7  H    1.078325   2.150577   3.393171   3.843739   3.372674
     8  H    2.133223   1.079288   2.138868   3.369917   3.848344
     9  H    3.844385   3.377873   2.152169   1.079115   2.119056
    10  O    3.669286   4.144347   3.658566   2.379417   1.375553
    11  H    3.843610   4.566313   4.306837   3.141650   1.927435
    12  O    2.383631   3.651481   4.168640   3.673043   2.417871
    13  H    3.147365   4.298809   4.589373   3.845580   2.493866
    14  C    3.790551   2.517929   1.501482   2.503926   3.783861
    15  H    4.500709   3.335496   2.136395   2.680498   4.035591
    16  H    4.009835   2.635633   2.137148   3.377181   4.534912
    17  C    4.568640   3.396596   2.499500   3.237357   4.460982
    18  H    5.593822   4.352929   3.437994   4.157795   5.451035
    19  H    4.714226   3.760452   2.697045   2.943361   4.101774
    20  N    4.421717   3.329559   3.004277   3.957076   4.927079
    21  H    3.599760   2.695728   2.648147   3.552042   4.296786
    22  H    5.224364   4.246034   3.899985   4.685951   5.605212
                    6          7          8          9         10
     6  C    0.000000
     7  H    2.121809   0.000000
     8  H    3.375250   2.475568   0.000000
     9  H    3.374624   4.922419   4.275461   0.000000
    10  O    2.416324   4.533563   5.223537   2.574924   0.000000
    11  H    2.493460   4.550524   5.627300   3.453166   0.965646
    12  O    1.375645   2.585460   4.514853   4.533208   2.823474
    13  H    1.927958   3.466916   5.234574   4.546623   2.446473
    14  C    4.293600   4.665953   2.721886   2.720627   4.882058
    15  H    4.791119   5.440444   3.644951   2.523026   4.933108
    16  H    4.793425   4.709737   2.409892   3.730329   5.733795
    17  C    5.009284   5.401321   3.534275   3.279523   5.443929
    18  H    6.061155   6.405954   4.356047   4.025340   6.370549
    19  H    4.857045   5.632412   4.161521   2.767476   4.873610
    20  N    5.112365   5.032769   3.188789   4.300838   6.040759
    21  H    4.303684   4.161589   2.667996   4.098343   5.453650
    22  H    5.826810   5.799657   4.130036   4.925213   6.614516
                   11         12         13         14         15
    11  H    0.000000
    12  O    2.450263   0.000000
    13  H    1.995447   0.965780   0.000000
    14  C    5.624075   5.668722   6.061508   0.000000
    15  H    5.696791   6.148231   6.471431   1.091018   0.000000
    16  H    6.390415   6.143395   6.666446   1.089835   1.775822
    17  C    6.288318   6.329796   6.592555   1.535063   2.148908
    18  H    7.237858   7.396386   7.656337   2.159673   2.423792
    19  H    5.781660   6.111426   6.214737   2.159768   2.504683
    20  N    6.803961   6.338301   6.678393   2.445915   3.372177
    21  H    6.147404   5.458376   5.814929   2.642213   3.663382
    22  H    7.410527   6.983348   7.237016   3.339744   4.157021
                   16         17         18         19         20
    16  H    0.000000
    17  C    2.142595   0.000000
    18  H    2.504368   1.094067   0.000000
    19  H    3.049651   1.103813   1.778653   0.000000
    20  N    2.608222   1.453163   2.064696   2.144990   0.000000
    21  H    2.880265   2.034581   2.917276   2.453548   1.015467
    22  H    3.561780   2.042228   2.374607   2.432340   1.014056
                   21         22
    21  H    0.000000
    22  H    1.640852   0.000000
 Stoichiometry    C8H11NO2
 Framework group  C1[X(C8H11NO2)]
 Deg. of freedom    60
 Full point group                 C1      NOp   1
 Largest Abelian subgroup         C1      NOp   1
 Largest concise Abelian subgroup C1      NOp   1
                         Standard orientation:                         
 ---------------------------------------------------------------------
 Center     Atomic      Atomic             Coordinates (Angstroms)
 Number     Number       Type             X           Y           Z
 ---------------------------------------------------------------------
      1          6           0        0.964959   -1.571853   -0.282433
      2          6           0       -0.336888   -1.253821   -0.624700
      3          6           0       -0.769200    0.065595   -0.627655
      4          6           0        0.138389    1.067155   -0.309106
      5          6           0        1.450189    0.763268    0.012193
      6          6           0        1.862910   -0.572809    0.055266
      7          1           0        1.305095   -2.594958   -0.263837
      8          1           0       -1.027289   -2.042274   -0.882674
      9          1           0       -0.156167    2.105252   -0.318108
     10          8           0        2.321815    1.786366    0.304909
     11          1           0        3.222620    1.517088    0.084654
     12          8           0        3.149803   -0.911144    0.404312
     13          1           0        3.514542   -0.236413    0.991199
     14          6           0       -2.198857    0.414189   -0.926004
     15          1           0       -2.244191    1.336262   -1.507422
     16          1           0       -2.669330   -0.387871   -1.494419
     17          6           0       -2.993704    0.612865    0.372135
     18          1           0       -3.995213    0.981009    0.130408
     19          1           0       -2.486796    1.378163    0.985132
     20          7           0       -3.150070   -0.660519    1.054575
     21          1           0       -2.236806   -1.045188    1.276282
     22          1           0       -3.655713   -0.536754    1.924814
 ---------------------------------------------------------------------
 Rotational constants (GHZ):           2.1950288           0.6560437           0.5687929
 Standard basis: def2TZVP (5D, 7F)
 There are   462 symmetry adapted cartesian basis functions of A   symmetry.
 There are   407 symmetry adapted basis functions of A   symmetry.
   407 basis functions,   649 primitive gaussians,   462 cartesian basis functions
    41 alpha electrons       41 beta electrons
       nuclear repulsion energy       605.6751795771 Hartrees.
 NAtoms=   22 NActive=   22 NUniq=   22 SFac= 1.00D+00 NAtFMM=   60 NAOKFM=F Big=F
 Integral buffers will be    131072 words long.
 Raffenetti 2 integral format.
 Two-electron integral symmetry is turned on.
 One-electron integrals computed using PRISM.
   1 Symmetry operations used in ECPInt.
 ECPInt:  NShTT=   13695 NPrTT=   41316 LenC2=   12978 LenP2D=   30181.
 LDataN:  DoStor=T MaxTD1= 6 Len=  172
 NBasis=   407 RedAO= T EigKep=  8.49D-06  NBF=   407
 NBsUse=   407 1.00D-06 EigRej= -1.00D+00 NBFU=   407
 ExpMin= 9.52D-02 ExpMax= 2.70D+04 ExpMxC= 9.22D+02 IAcc=3 IRadAn=         5 AccDes= 0.00D+00
 Harris functional with IExCor= 1009 and IRadAn=       5 diagonalized for initial guess.
 HarFok:  IExCor= 1009 AccDes= 0.00D+00 IRadAn=         5 IDoV= 1 UseB2=F ITyADJ=14
 ICtDFT=  3500011 ScaDFX=  1.000000  1.000000  1.000000  1.000000
 FoFCou: FMM=F IPFlag=           0 FMFlag=      100000 FMFlg1=           0
         NFxFlg=           0 DoJE=T BraDBF=F KetDBF=T FulRan=T
         wScrn=  0.000000 ICntrl=       500 IOpCl=  0 I1Cent=   200000004 NGrid=           0
         NMat0=    1 NMatS0=      1 NMatT0=    0 NMatD0=    1 NMtDS0=    0 NMtDT0=    0
 Petite list used in FoFCou.
 Requested convergence on RMS density matrix=1.00D-08 within 128 cycles.
 Requested convergence on MAX density matrix=1.00D-06.
 Requested convergence on             energy=1.00D-06.
 No special actions if energy rises.
 Integral accuracy reduced to 1.0D-05 until final iterations.
 Initial convergence to 1.0D-05 achieved.  Increase integral accuracy.
 SCF Done:  E(RM062X) =  -516.650851999     A.U. after   16 cycles
            NFock= 16  Conv=0.33D-08     -V/T= 2.0046

 **********************************************************************

            Population analysis using the SCF Density.

 **********************************************************************

 Orbital symmetries:
       Occupied  (A) (A) (A) (A) (A) (A) (A) (A) (A) (A) (A) (A)
                 (A) (A) (A) (A) (A) (A) (A) (A) (A) (A) (A) (A)
                 (A) (A) (A) (A) (A) (A) (A) (A) (A) (A) (A) (A)
                 (A) (A) (A) (A) (A)
       Virtual   (A) (A) (A) (A) (A) (A) (A) (A) (A) (A) (A) (A)
                 (A) (A) (A) (A) (A) (A) (A) (A) (A) (A) (A) (A)
                 (A) (A) (A) (A) (A) (A) (A) (A) (A) (A) (A) (A)
                 (A) (A) (A) (A) (A) (A) (A) (A) (A) (A) (A) (A)
                 (A) (A) (A) (A) (A) (A) (A) (A) (A) (A) (A) (A)
                 (A) (A) (A) (A) (A) (A) (A) (A) (A) (A) (A) (A)
                 (A) (A) (A) (A) (A) (A) (A) (A) (A) (A) (A) (A)
                 (A) (A) (A) (A) (A) (A) (A) (A) (A) (A) (A) (A)
                 (A) (A) (A) (A) (A) (A) (A) (A) (A) (A) (A) (A)
                 (A) (A) (A) (A) (A) (A) (A) (A) (A) (A) (A) (A)
                 (A) (A) (A) (A) (A) (A) (A) (A) (A) (A) (A) (A)
                 (A) (A) (A) (A) (A) (A) (A) (A) (A) (A) (A) (A)
                 (A) (A) (A) (A) (A) (A) (A) (A) (A) (A) (A) (A)
                 (A) (A) (A) (A) (A) (A) (A) (A) (A) (A) (A) (A)
                 (A) (A) (A) (A) (A) (A) (A) (A) (A) (A) (A) (A)
                 (A) (A) (A) (A) (A) (A) (A) (A) (A) (A) (A) (A)
                 (A) (A) (A) (A) (A) (A) (A) (A) (A) (A) (A) (A)
                 (A) (A) (A) (A) (A) (A) (A) (A) (A) (A) (A) (A)
                 (A) (A) (A) (A) (A) (A) (A) (A) (A) (A) (A) (A)
                 (A) (A) (A) (A) (A) (A) (A) (A) (A) (A) (A) (A)
                 (A) (A) (A) (A) (A) (A) (A) (A) (A) (A) (A) (A)
                 (A) (A) (A) (A) (A) (A) (A) (A) (A) (A) (A) (A)
                 (A) (A) (A) (A) (A) (A) (A) (A) (A) (A) (A) (A)
                 (A) (A) (A) (A) (A) (A) (A) (A) (A) (A) (A) (A)
                 (A) (A) (A) (A) (A) (A) (A) (A) (A) (A) (A) (A)
                 (A) (A) (A) (A) (A) (A) (A) (A) (A) (A) (A) (A)
                 (A) (A) (A) (A) (A) (A) (A) (A) (A) (A) (A) (A)
                 (A) (A) (A) (A) (A) (A) (A) (A) (A) (A) (A) (A)
                 (A) (A) (A) (A) (A) (A) (A) (A) (A) (A) (A) (A)
                 (A) (A) (A) (A) (A) (A) (A) (A) (A) (A) (A) (A)
                 (A) (A) (A) (A) (A) (A)
 The electronic state is 1-A.
 Alpha  occ. eigenvalues --  -19.66680 -19.66559 -14.71995 -10.60575 -10.60343
 Alpha  occ. eigenvalues --  -10.55647 -10.54471 -10.54131 -10.53930 -10.53584
 Alpha  occ. eigenvalues --  -10.53277  -1.20638  -1.17799  -0.99125  -0.96285
 Alpha  occ. eigenvalues --   -0.87382  -0.84656  -0.80110  -0.71584  -0.70895
 Alpha  occ. eigenvalues --   -0.67994  -0.64997  -0.58841  -0.58172  -0.56741
 Alpha  occ. eigenvalues --   -0.53304  -0.53197  -0.51808  -0.50210  -0.48449
 Alpha  occ. eigenvalues --   -0.47599  -0.46469  -0.45789  -0.44237  -0.42147
 Alpha  occ. eigenvalues --   -0.40922  -0.39537  -0.39178  -0.30564  -0.30089
 Alpha  occ. eigenvalues --   -0.27532
 Alpha virt. eigenvalues --    0.02140   0.02829   0.04012   0.06981   0.09207
 Alpha virt. eigenvalues --    0.09856   0.11350   0.11689   0.11903   0.13296
 Alpha virt. eigenvalues --    0.14352   0.16637   0.16945   0.17472   0.18321
 Alpha virt. eigenvalues --    0.20219   0.20981   0.22179   0.22529   0.24068
 Alpha virt. eigenvalues --    0.24816   0.26504   0.27170   0.28416   0.29118
 Alpha virt. eigenvalues --    0.29907   0.31281   0.32982   0.33613   0.34603
 Alpha virt. eigenvalues --    0.34807   0.35504   0.36870   0.37041   0.37983
 Alpha virt. eigenvalues --    0.38985   0.39257   0.40079   0.40486   0.40962
 Alpha virt. eigenvalues --    0.41591   0.43249   0.44427   0.44667   0.45330
 Alpha virt. eigenvalues --    0.46616   0.46944   0.47288   0.48715   0.49054
 Alpha virt. eigenvalues --    0.50001   0.50238   0.51541   0.51908   0.52738
 Alpha virt. eigenvalues --    0.53963   0.55239   0.55784   0.56250   0.57860
 Alpha virt. eigenvalues --    0.59239   0.59438   0.59947   0.61653   0.62757
 Alpha virt. eigenvalues --    0.64783   0.65148   0.67030   0.67422   0.69182
 Alpha virt. eigenvalues --    0.70561   0.70675   0.72707   0.74597   0.75286
 Alpha virt. eigenvalues --    0.76591   0.77728   0.78117   0.81616   0.81834
 Alpha virt. eigenvalues --    0.82083   0.85502   0.86159   0.88036   0.88456
 Alpha virt. eigenvalues --    0.89957   0.91115   0.92229   0.93438   0.94632
 Alpha virt. eigenvalues --    0.96410   0.99425   1.02173   1.04360   1.05677
 Alpha virt. eigenvalues --    1.08923   1.09924   1.11916   1.12184   1.14230
 Alpha virt. eigenvalues --    1.16577   1.18884   1.21361   1.21662   1.23030
 Alpha virt. eigenvalues --    1.24591   1.25845   1.27856   1.28599   1.30068
 Alpha virt. eigenvalues --    1.31066   1.33586   1.35716   1.36949   1.38109
 Alpha virt. eigenvalues --    1.39399   1.40328   1.40531   1.44163   1.44864
 Alpha virt. eigenvalues --    1.46525   1.47478   1.49185   1.50599   1.51689
 Alpha virt. eigenvalues --    1.54723   1.56297   1.58231   1.58969   1.60445
 Alpha virt. eigenvalues --    1.61704   1.64493   1.65418   1.65934   1.66505
 Alpha virt. eigenvalues --    1.68924   1.70199   1.72065   1.74020   1.74325
 Alpha virt. eigenvalues --    1.75889   1.76669   1.77627   1.78313   1.80271
 Alpha virt. eigenvalues --    1.81760   1.84106   1.86641   1.88613   1.89162
 Alpha virt. eigenvalues --    1.91906   1.92761   1.93695   1.95917   1.96647
 Alpha virt. eigenvalues --    1.98668   1.99707   2.00403   2.02375   2.03922
 Alpha virt. eigenvalues --    2.05162   2.06833   2.07863   2.09691   2.11796
 Alpha virt. eigenvalues --    2.13330   2.14673   2.18220   2.19319   2.21472
 Alpha virt. eigenvalues --    2.22935   2.24759   2.25442   2.26006   2.28114
 Alpha virt. eigenvalues --    2.28910   2.31567   2.32953   2.33083   2.35044
 Alpha virt. eigenvalues --    2.37211   2.39607   2.42556   2.43558   2.44628
 Alpha virt. eigenvalues --    2.49198   2.49971   2.51126   2.51914   2.55293
 Alpha virt. eigenvalues --    2.56268   2.58263   2.60083   2.60591   2.62598
 Alpha virt. eigenvalues --    2.64918   2.65057   2.66052   2.67471   2.67736
 Alpha virt. eigenvalues --    2.68954   2.69598   2.72216   2.73432   2.75046
 Alpha virt. eigenvalues --    2.75837   2.77750   2.78119   2.78530   2.80230
 Alpha virt. eigenvalues --    2.81706   2.84024   2.85468   2.86946   2.88092
 Alpha virt. eigenvalues --    2.89323   2.91471   2.92688   2.93808   2.95083
 Alpha virt. eigenvalues --    2.97204   2.97461   2.99236   3.00646   3.01336
 Alpha virt. eigenvalues --    3.02627   3.06009   3.07284   3.07765   3.10902
 Alpha virt. eigenvalues --    3.11434   3.12356   3.14120   3.16735   3.17200
 Alpha virt. eigenvalues --    3.18497   3.18893   3.19771   3.21955   3.22906
 Alpha virt. eigenvalues --    3.25044   3.25990   3.26215   3.28087   3.29874
 Alpha virt. eigenvalues --    3.31543   3.33102   3.35755   3.36060   3.37061
 Alpha virt. eigenvalues --    3.37879   3.39913   3.40188   3.42117   3.43490
 Alpha virt. eigenvalues --    3.44139   3.44776   3.47820   3.48343   3.48800
 Alpha virt. eigenvalues --    3.50760   3.51322   3.53351   3.55783   3.58017
 Alpha virt. eigenvalues --    3.60207   3.64196   3.66458   3.68694   3.71272
 Alpha virt. eigenvalues --    3.74262   3.78158   3.80680   3.81842   3.84075
 Alpha virt. eigenvalues --    3.84499   3.85180   3.89135   3.91309   3.94461
 Alpha virt. eigenvalues --    3.98481   3.99638   4.02100   4.02704   4.05944
 Alpha virt. eigenvalues --    4.08851   4.10079   4.15163   4.15598   4.16351
 Alpha virt. eigenvalues --    4.18510   4.20330   4.23297   4.26214   4.28115
 Alpha virt. eigenvalues --    4.29314   4.33161   4.33743   4.36120   4.38446
 Alpha virt. eigenvalues --    4.42759   4.43826   4.46764   4.51659   4.54450
 Alpha virt. eigenvalues --    4.56923   4.61572   4.67144   4.68671   4.71733
 Alpha virt. eigenvalues --    4.75500   4.79133   4.83053   4.83716   4.84609
 Alpha virt. eigenvalues --    4.87790   4.89773   4.92870   4.94044   5.03835
 Alpha virt. eigenvalues --    5.05013   5.09926   5.12174   5.18830   5.25209
 Alpha virt. eigenvalues --    5.26738   5.28906   5.29508   5.32784   5.40572
 Alpha virt. eigenvalues --    5.41673   5.42707   5.48729   5.53038   5.53921
 Alpha virt. eigenvalues --    5.63857   5.71580   5.77925   5.83883   5.89651
 Alpha virt. eigenvalues --    5.98857   6.05054   6.27148   6.30032   6.49117
 Alpha virt. eigenvalues --    6.50564   6.55671   6.66866   6.70524   6.76112
 Alpha virt. eigenvalues --    6.78524   6.94021   6.97251   7.14727   7.30749
 Alpha virt. eigenvalues --   22.26926  22.54954  22.69684  22.87294  22.90408
 Alpha virt. eigenvalues --   22.98990  23.09849  23.50448  32.09614  43.96945
 Alpha virt. eigenvalues --   44.20454
          Condensed to atoms (all electrons):
               1          2          3          4          5          6
     1  C    5.204387   0.348149   0.023316  -0.071750  -0.013847   0.320477
     2  C    0.348149   5.317033   0.298201  -0.035922  -0.113341   0.079241
     3  C    0.023316   0.298201   5.285654   0.425457   0.028054  -0.138015
     4  C   -0.071750  -0.035922   0.425457   5.391822   0.271817  -0.045054
     5  C   -0.013847  -0.113341   0.028054   0.271817   5.419371   0.110027
     6  C    0.320477   0.079241  -0.138015  -0.045054   0.110027   5.410974
     7  H    0.397971  -0.038761   0.007557  -0.003400   0.014432  -0.024948
     8  H   -0.035404   0.425900  -0.052492   0.009873  -0.002688   0.009074
     9  H   -0.004230   0.011071  -0.042685   0.374197  -0.006514   0.013399
    10  O    0.014403  -0.000367   0.001059  -0.038000   0.247998  -0.052839
    11  H    0.007771  -0.002281   0.001791   0.016098  -0.023735  -0.061686
    12  O   -0.034454   0.001533   0.001074   0.017076  -0.051456   0.238705
    13  H    0.009688   0.001935  -0.001481   0.008481  -0.056633  -0.024858
    14  C    0.005996  -0.042638   0.186969  -0.053896  -0.000452   0.001398
    15  H   -0.002286   0.013524  -0.047815  -0.011813  -0.000585   0.001069
    16  H    0.000550   0.001222  -0.076502   0.007990  -0.001061   0.000223
    17  C    0.003138  -0.013157  -0.031340  -0.020972   0.007598  -0.000741
    18  H   -0.000112  -0.001161   0.015902   0.001401  -0.000135   0.000057
    19  H   -0.000950   0.012250  -0.033645  -0.005020  -0.000211   0.000493
    20  N    0.001416  -0.006534   0.018246  -0.001149   0.001148  -0.000790
    21  H    0.000663  -0.011735   0.024879   0.000018   0.000002  -0.000391
    22  H    0.000100  -0.000734  -0.000883  -0.000204  -0.000013  -0.000010
               7          8          9         10         11         12
     1  C    0.397971  -0.035404  -0.004230   0.014403   0.007771  -0.034454
     2  C   -0.038761   0.425900   0.011071  -0.000367  -0.002281   0.001533
     3  C    0.007557  -0.052492  -0.042685   0.001059   0.001791   0.001074
     4  C   -0.003400   0.009873   0.374197  -0.038000   0.016098   0.017076
     5  C    0.014432  -0.002688  -0.006514   0.247998  -0.023735  -0.051456
     6  C   -0.024948   0.009074   0.013399  -0.052839  -0.061686   0.238705
     7  H    0.496134  -0.004139   0.000054  -0.000175   0.000080   0.001932
     8  H   -0.004139   0.479600  -0.000129   0.000019  -0.000009  -0.000140
     9  H    0.000054  -0.000129   0.487744   0.003668  -0.001273  -0.000228
    10  O   -0.000175   0.000019   0.003668   7.963997   0.298268  -0.009306
    11  H    0.000080  -0.000009  -0.001273   0.298268   0.439292   0.016773
    12  O    0.001932  -0.000140  -0.000228  -0.009306   0.016773   7.967320
    13  H   -0.001250   0.000023   0.000027   0.016823  -0.005893   0.299026
    14  C   -0.000333   0.000759   0.002371  -0.000356   0.000052   0.000042
    15  H   -0.000003   0.000537   0.000929  -0.000050  -0.000010  -0.000001
    16  H   -0.000056   0.000712   0.000247   0.000004  -0.000001   0.000001
    17  C    0.000060  -0.001470  -0.001471   0.000038  -0.000006   0.000001
    18  H   -0.000001  -0.000081  -0.000096  -0.000001  -0.000000   0.000000
    19  H   -0.000009   0.000340   0.001889  -0.000003  -0.000000   0.000001
    20  N   -0.000005   0.002505  -0.000256   0.000001   0.000001  -0.000001
    21  H   -0.000003  -0.001882  -0.000148  -0.000001  -0.000001   0.000002
    22  H    0.000002  -0.000132  -0.000019   0.000000  -0.000000  -0.000000
              13         14         15         16         17         18
     1  C    0.009688   0.005996  -0.002286   0.000550   0.003138  -0.000112
     2  C    0.001935  -0.042638   0.013524   0.001222  -0.013157  -0.001161
     3  C   -0.001481   0.186969  -0.047815  -0.076502  -0.031340   0.015902
     4  C    0.008481  -0.053896  -0.011813   0.007990  -0.020972   0.001401
     5  C   -0.056633  -0.000452  -0.000585  -0.001061   0.007598  -0.000135
     6  C   -0.024858   0.001398   0.001069   0.000223  -0.000741   0.000057
     7  H   -0.001250  -0.000333  -0.000003  -0.000056   0.000060  -0.000001
     8  H    0.000023   0.000759   0.000537   0.000712  -0.001470  -0.000081
     9  H    0.000027   0.002371   0.000929   0.000247  -0.001471  -0.000096
    10  O    0.016823  -0.000356  -0.000050   0.000004   0.000038  -0.000001
    11  H   -0.005893   0.000052  -0.000010  -0.000001  -0.000006  -0.000000
    12  O    0.299026   0.000042  -0.000001   0.000001   0.000001   0.000000
    13  H    0.440368   0.000018   0.000002   0.000001  -0.000007   0.000000
    14  C    0.000018   5.263877   0.432410   0.452698   0.250727  -0.044139
    15  H    0.000002   0.432410   0.527499  -0.010757  -0.062148  -0.003423
    16  H    0.000001   0.452698  -0.010757   0.499411  -0.037608  -0.004472
    17  C   -0.000007   0.250727  -0.062148  -0.037608   5.041148   0.413818
    18  H    0.000000  -0.044139  -0.003423  -0.004472   0.413818   0.564917
    19  H    0.000001  -0.035667   0.004691   0.006512   0.448357  -0.038108
    20  N   -0.000001  -0.058927   0.005973   0.003564   0.227362  -0.032394
    21  H    0.000001  -0.017667  -0.000347  -0.000328  -0.047919   0.008490
    22  H    0.000000   0.012274  -0.000594  -0.000705  -0.045837  -0.005598
              19         20         21         22
     1  C   -0.000950   0.001416   0.000663   0.000100
     2  C    0.012250  -0.006534  -0.011735  -0.000734
     3  C   -0.033645   0.018246   0.024879  -0.000883
     4  C   -0.005020  -0.001149   0.000018  -0.000204
     5  C   -0.000211   0.001148   0.000002  -0.000013
     6  C    0.000493  -0.000790  -0.000391  -0.000010
     7  H   -0.000009  -0.000005  -0.000003   0.000002
     8  H    0.000340   0.002505  -0.001882  -0.000132
     9  H    0.001889  -0.000256  -0.000148  -0.000019
    10  O   -0.000003   0.000001  -0.000001   0.000000
    11  H   -0.000000   0.000001  -0.000001  -0.000000
    12  O    0.000001  -0.000001   0.000002  -0.000000
    13  H    0.000001  -0.000001   0.000001   0.000000
    14  C   -0.035667  -0.058927  -0.017667   0.012274
    15  H    0.004691   0.005973  -0.000347  -0.000594
    16  H    0.006512   0.003564  -0.000328  -0.000705
    17  C    0.448357   0.227362  -0.047919  -0.045837
    18  H   -0.038108  -0.032394   0.008490  -0.005598
    19  H    0.582960  -0.064028  -0.005716  -0.007378
    20  N   -0.064028   6.728350   0.369247   0.365562
    21  H   -0.005716   0.369247   0.469467  -0.029174
    22  H   -0.007378   0.365562  -0.029174   0.488066
 Mulliken charges:
               1
     1  C   -0.174992
     2  C   -0.243428
     3  C    0.106698
     4  C   -0.237049
     5  C    0.170224
     6  C    0.164197
     7  H    0.154864
     8  H    0.169225
     9  H    0.161454
    10  O   -0.445179
    11  H    0.314771
    12  O   -0.447899
    13  H    0.313728
    14  C   -0.355513
    15  H    0.153200
    16  H    0.158358
    17  C   -0.129571
    18  H    0.125139
    19  H    0.133242
    20  N   -0.559290
    21  H    0.242543
    22  H    0.225278
 Sum of Mulliken charges =  -0.00000
 Mulliken charges with hydrogens summed into heavy atoms:
               1
     1  C   -0.020128
     2  C   -0.074204
     3  C    0.106698
     4  C   -0.075594
     5  C    0.170224
     6  C    0.164197
    10  O   -0.130408
    12  O   -0.134171
    14  C   -0.043955
    17  C    0.128810
    20  N   -0.091469
 Electronic spatial extent (au):  <R**2>=           2034.3213
 Charge=             -0.0000 electrons
 Dipole moment (field-independent basis, Debye):
    X=              1.0225    Y=              1.0281    Z=              0.9492  Tot=              1.7330
 Quadrupole moment (field-independent basis, Debye-Ang):
   XX=            -59.9599   YY=            -67.7663   ZZ=            -64.6132
   XY=             -0.4181   XZ=              0.7987   YZ=             -0.5880
 Traceless Quadrupole moment (field-independent basis, Debye-Ang):
   XX=              4.1533   YY=             -3.6532   ZZ=             -0.5001
   XY=             -0.4181   XZ=              0.7987   YZ=             -0.5880
 Octapole moment (field-independent basis, Debye-Ang**2):
  XXX=             61.0153  YYY=             -6.4253  ZZZ=             16.9273  XYY=              0.7388
  XXY=             37.5537  XXZ=             20.4231  XZZ=             -2.8132  YZZ=             -0.6914
  YYZ=             -3.9121  XYZ=             -0.6252
 Hexadecapole moment (field-independent basis, Debye-Ang**3):
 XXXX=          -1730.8812 YYYY=           -519.0799 ZZZZ=           -221.2325 XXXY=             42.6084
 XXXZ=             16.0835 YYYX=            -14.2323 YYYZ=             -0.9828 ZZZX=            -13.7996
 ZZZY=             -8.2427 XXYY=           -436.2506 XXZZ=           -297.9416 YYZZ=           -129.2201
 XXYZ=              0.0161 YYXZ=             -2.1810 ZZXY=              9.5712
 N-N= 6.056751795771D+02 E-N=-2.416879965399D+03  KE= 5.142644491796D+02
   1 Symmetry operations used in ECPInt.
 ECPInt:  NShTT=   13695 NPrTT=   41316 LenC2=   12978 LenP2D=   30181.
 LDataN:  DoStor=T MaxTD1= 7 Len=  274
 Calling FoFJK, ICntrl=      2127 FMM=F ISym2X=0 I1Cent= 0 IOpClX= 0 NMat=1 NMatS=1 NMatT=0.
 ***** Axes restored to original set *****
 -------------------------------------------------------------------
 Center     Atomic                   Forces (Hartrees/Bohr)
 Number     Number              X              Y              Z
 -------------------------------------------------------------------
      1        6          -0.000471463   -0.001883567    0.005681117
      2        6          -0.000554715    0.000219652   -0.000149489
      3        6          -0.000633826    0.001789718   -0.001703362
      4        6           0.001376346    0.000058375    0.004719692
      5        6           0.000924747    0.001807267    0.002376329
      6        6          -0.000818354   -0.002555536    0.000497830
      7        1           0.002454358    0.000842450    0.000891543
      8        1           0.001104399    0.001152799   -0.002204635
      9        1          -0.003098840   -0.001035133   -0.000391233
     10        8           0.005128376    0.000860789   -0.000119296
     11        1          -0.002901340    0.000840429   -0.003077081
     12        8          -0.005044605   -0.000270214   -0.000827433
     13        1           0.003762415    0.000484677   -0.002691196
     14        6          -0.000042216   -0.006848069   -0.001401659
     15        1          -0.000207845    0.001130105   -0.000235782
     16        1          -0.000978287    0.000687174   -0.000780356
     17        6          -0.003660753    0.001085190   -0.001187633
     18        1          -0.000795173    0.000034464    0.001958538
     19        1          -0.000269686    0.002638485   -0.002392022
     20        7           0.003168118   -0.001010953    0.000655701
     21        1           0.000557842   -0.001742588   -0.000967987
     22        1           0.001000504    0.001714487    0.001348414
 -------------------------------------------------------------------
 Cartesian Forces:  Max     0.006848069 RMS     0.002169329

 GradGradGradGradGradGradGradGradGradGradGradGradGradGradGradGradGradGrad
 Berny optimization.
 FormGI is forming the generalized inverse of G from B-inverse, IUseBI=4.
 Internal  Forces:  Max     0.004604585 RMS     0.001602384
 Search for a local minimum.
 Step number   1 out of a maximum of  116
 All quantities printed in internal units (Hartrees-Bohrs-Radians)
 Mixed Optimization -- RFO/linear search
 Second derivative matrix not updated -- first step.
 ITU=  0
     Eigenvalues ---    0.00302   0.00746   0.00989   0.01636   0.02014
     Eigenvalues ---    0.02015   0.02152   0.02177   0.02190   0.02251
     Eigenvalues ---    0.02268   0.02277   0.02291   0.02300   0.04379
     Eigenvalues ---    0.04386   0.04463   0.05569   0.05614   0.08975
     Eigenvalues ---    0.08985   0.12565   0.12600   0.15998   0.15999
     Eigenvalues ---    0.16000   0.16000   0.16000   0.16000   0.16000
     Eigenvalues ---    0.21929   0.22001   0.22367   0.23476   0.24598
     Eigenvalues ---    0.24986   0.24994   0.24997   0.28961   0.32222
     Eigenvalues ---    0.33264   0.34347   0.34695   0.34832   0.36080
     Eigenvalues ---    0.36101   0.36198   0.37834   0.42870   0.43555
     Eigenvalues ---    0.45069   0.45300   0.46659   0.47735   0.48067
     Eigenvalues ---    0.48434   0.49907   0.49924   0.54249   0.54276
 RFO step:  Lambda=-2.71386826D-03 EMin= 3.02128439D-03
 Linear search not attempted -- first point.
 Iteration  1 RMS(Cart)=  0.05795527 RMS(Int)=  0.00272477
 Iteration  2 RMS(Cart)=  0.00316527 RMS(Int)=  0.00003116
 Iteration  3 RMS(Cart)=  0.00000667 RMS(Int)=  0.00003091
 Iteration  4 RMS(Cart)=  0.00000000 RMS(Int)=  0.00003091
 Variable       Old X    -DE/DX   Delta X   Delta X   Delta X     New X
                                 (Linear)    (Quad)   (Total)
    R1        2.61377   0.00455   0.00000   0.00974   0.00974   2.62351
    R2        2.61742  -0.00230   0.00000  -0.00509  -0.00510   2.61232
    R3        2.03774   0.00270   0.00000   0.00742   0.00742   2.04515
    R4        2.62377   0.00323   0.00000   0.00751   0.00751   2.63128
    R5        2.03956   0.00269   0.00000   0.00741   0.00741   2.04697
    R6        2.62415   0.00293   0.00000   0.00647   0.00648   2.63062
    R7        2.83739   0.00341   0.00000   0.01049   0.01049   2.84788
    R8        2.61602  -0.00095   0.00000  -0.00238  -0.00237   2.61365
    R9        2.03923   0.00325   0.00000   0.00895   0.00895   2.04818
   R10        2.64379  -0.00342   0.00000  -0.00823  -0.00824   2.63556
   R11        2.59942  -0.00425   0.00000  -0.00846  -0.00846   2.59095
   R12        2.59959  -0.00373   0.00000  -0.00744  -0.00744   2.59215
   R13        1.82481  -0.00280   0.00000  -0.00513  -0.00513   1.81968
   R14        1.82506  -0.00313   0.00000  -0.00574  -0.00574   1.81932
   R15        2.06172   0.00034   0.00000   0.00098   0.00098   2.06271
   R16        2.05949   0.00051   0.00000   0.00146   0.00146   2.06095
   R17        2.90085  -0.00221   0.00000  -0.00755  -0.00755   2.89329
   R18        2.06749  -0.00141   0.00000  -0.00408  -0.00408   2.06340
   R19        2.08590  -0.00321   0.00000  -0.00956  -0.00956   2.07634
   R20        2.74608   0.00460   0.00000   0.01208   0.01208   2.75816
   R21        1.91896  -0.00078   0.00000  -0.00172  -0.00172   1.91723
   R22        1.91629  -0.00180   0.00000  -0.00394  -0.00394   1.91235
    A1        2.09981  -0.00078   0.00000  -0.00339  -0.00342   2.09639
    A2        2.11685   0.00076   0.00000   0.00396   0.00396   2.12081
    A3        2.06651   0.00002   0.00000  -0.00062  -0.00062   2.06589
    A4        2.10842  -0.00018   0.00000   0.00167   0.00166   2.11008
    A5        2.08662   0.00046   0.00000   0.00141   0.00141   2.08804
    A6        2.08809  -0.00028   0.00000  -0.00313  -0.00313   2.08496
    A7        2.07306  -0.00201   0.00000  -0.00587  -0.00586   2.06719
    A8        2.11475   0.00074   0.00000   0.00190   0.00190   2.11665
    A9        2.09491   0.00127   0.00000   0.00401   0.00401   2.09892
   A10        2.11093  -0.00009   0.00000  -0.00068  -0.00071   2.11022
   A11        2.11008   0.00014   0.00000   0.00086   0.00082   2.11090
   A12        2.06209  -0.00005   0.00000  -0.00036  -0.00039   2.06170
   A13        2.09016   0.00186   0.00000   0.00509   0.00507   2.09523
   A14        2.07896  -0.00155   0.00000  -0.00493  -0.00494   2.07401
   A15        2.11393  -0.00031   0.00000  -0.00002  -0.00003   2.11390
   A16        2.08297   0.00119   0.00000   0.00256   0.00254   2.08551
   A17        2.08397  -0.00135   0.00000  -0.00423  -0.00422   2.07975
   A18        2.11608   0.00015   0.00000   0.00170   0.00170   2.11778
   A19        1.91257  -0.00007   0.00000  -0.00040  -0.00040   1.91217
   A20        1.91310  -0.00011   0.00000  -0.00068  -0.00068   1.91242
   A21        1.91949  -0.00059   0.00000   0.00344   0.00328   1.92278
   A22        1.92177  -0.00103   0.00000  -0.00692  -0.00690   1.91488
   A23        1.93375   0.00301   0.00000   0.01713   0.01705   1.95080
   A24        1.90297  -0.00033   0.00000  -0.01374  -0.01374   1.88923
   A25        1.89628  -0.00030   0.00000   0.00466   0.00454   1.90081
   A26        1.88892  -0.00079   0.00000  -0.00503  -0.00499   1.88393
   A27        1.90784  -0.00087   0.00000  -0.00585  -0.00595   1.90189
   A28        1.89819  -0.00044   0.00000  -0.00754  -0.00757   1.89062
   A29        1.91712   0.00033   0.00000   0.00390   0.00389   1.92101
   A30        1.88576  -0.00052   0.00000  -0.01061  -0.01070   1.87506
   A31        1.87562   0.00134   0.00000   0.01799   0.01799   1.89361
   A32        1.97813   0.00011   0.00000   0.00180   0.00182   1.97994
   A33        1.91527   0.00125   0.00000   0.00607   0.00606   1.92134
   A34        1.92807   0.00177   0.00000   0.00926   0.00926   1.93733
   A35        1.88317  -0.00183   0.00000  -0.01450  -0.01451   1.86866
    D1       -0.00761  -0.00013   0.00000  -0.00445  -0.00446  -0.01208
    D2       -3.13815  -0.00000   0.00000   0.00089   0.00088  -3.13727
    D3        3.12610  -0.00031   0.00000  -0.01235  -0.01235   3.11375
    D4       -0.00444  -0.00018   0.00000  -0.00700  -0.00701  -0.01145
    D5       -0.02957  -0.00016   0.00000  -0.00724  -0.00722  -0.03678
    D6        3.13142  -0.00019   0.00000  -0.00869  -0.00866   3.12276
    D7        3.11968   0.00001   0.00000   0.00041   0.00041   3.12009
    D8       -0.00251  -0.00002   0.00000  -0.00104  -0.00104  -0.00355
    D9        0.02490   0.00020   0.00000   0.00887   0.00884   0.03374
   D10       -3.08371   0.00014   0.00000   0.00699   0.00698  -3.07674
   D11       -3.12775   0.00008   0.00000   0.00355   0.00354  -3.12422
   D12        0.04682   0.00002   0.00000   0.00167   0.00167   0.04849
   D13       -0.00482  -0.00006   0.00000  -0.00178  -0.00178  -0.00661
   D14        3.12230  -0.00042   0.00000  -0.01684  -0.01684   3.10547
   D15        3.10418  -0.00002   0.00000   0.00004   0.00003   3.10420
   D16       -0.05188  -0.00038   0.00000  -0.01503  -0.01503  -0.06691
   D17       -2.49199   0.00093   0.00000   0.02009   0.02011  -2.47188
   D18       -0.39457  -0.00051   0.00000   0.00087   0.00088  -0.39369
   D19        1.69447  -0.00024   0.00000   0.00106   0.00102   1.69549
   D20        0.68299   0.00094   0.00000   0.01837   0.01840   0.70139
   D21        2.78041  -0.00050   0.00000  -0.00085  -0.00084   2.77957
   D22       -1.41374  -0.00023   0.00000  -0.00065  -0.00069  -1.41443
   D23       -0.03217  -0.00024   0.00000  -0.00983  -0.00981  -0.04198
   D24        3.12709  -0.00043   0.00000  -0.01849  -0.01846   3.10863
   D25        3.12350   0.00011   0.00000   0.00483   0.00482   3.12832
   D26       -0.00042  -0.00009   0.00000  -0.00384  -0.00383  -0.00425
   D27        0.04917   0.00039   0.00000   0.01441   0.01443   0.06359
   D28       -3.11219   0.00040   0.00000   0.01583   0.01584  -3.09635
   D29       -3.11045   0.00058   0.00000   0.02320   0.02323  -3.08722
   D30        0.01137   0.00060   0.00000   0.02462   0.02464   0.03602
   D31       -2.65915   0.00293   0.00000   0.12771   0.12769  -2.53146
   D32        0.50036   0.00271   0.00000   0.11887   0.11889   0.61925
   D33       -2.67285   0.00298   0.00000   0.13027   0.13026  -2.54259
   D34        0.48852   0.00294   0.00000   0.12878   0.12878   0.61730
   D35        3.02462  -0.00012   0.00000   0.07659   0.07666   3.10128
   D36        0.96943   0.00125   0.00000   0.09701   0.09701   1.06644
   D37       -1.20465   0.00119   0.00000   0.09725   0.09727  -1.10738
   D38        0.91409  -0.00107   0.00000   0.05869   0.05869   0.97279
   D39       -1.14110   0.00031   0.00000   0.07911   0.07905  -1.06205
   D40        2.96801   0.00025   0.00000   0.07935   0.07931   3.04731
   D41       -1.14995  -0.00006   0.00000   0.07531   0.07534  -1.07461
   D42        3.07804   0.00132   0.00000   0.09572   0.09569  -3.10945
   D43        0.90397   0.00125   0.00000   0.09596   0.09595   0.99992
   D44        1.04456   0.00037   0.00000   0.01927   0.01924   1.06379
   D45        3.11879  -0.00002   0.00000   0.01089   0.01086   3.12965
   D46        3.11840   0.00030   0.00000   0.02495   0.02498  -3.13980
   D47       -1.09055  -0.00009   0.00000   0.01657   0.01660  -1.07395
   D48       -1.08253   0.00062   0.00000   0.02491   0.02491  -1.05763
   D49        0.99170   0.00023   0.00000   0.01652   0.01653   1.00823
         Item               Value     Threshold  Converged?
 Maximum Force            0.004605     0.000450     NO 
 RMS     Force            0.001602     0.000300     NO 
 Maximum Displacement     0.240176     0.001800     NO 
 RMS     Displacement     0.058024     0.001200     NO 
 Predicted change in Energy=-1.543935D-03
 GradGradGradGradGradGradGradGradGradGradGradGradGradGradGradGradGradGrad

                          Input orientation:                          
 ---------------------------------------------------------------------
 Center     Atomic      Atomic             Coordinates (Angstroms)
 Number     Number       Type             X           Y           Z
 ---------------------------------------------------------------------
      1          6           0        1.528499   11.291263  106.508556
      2          6           0        1.036360   11.250076  105.211066
      3          6           0       -0.163212   10.605115  104.921463
      4          6           0       -0.880244   10.036407  105.970406
      5          6           0       -0.410717   10.101962  107.269701
      6          6           0        0.820361   10.699927  107.538042
      7          1           0        2.472110   11.767626  106.740803
      8          1           0        1.599596   11.712478  104.409635
      9          1           0       -1.834885    9.553792  105.795835
     10          8           0       -1.170248    9.561771  108.275260
     11          1           0       -1.074163   10.092889  109.072708
     12          8           0        1.335612   10.732869  108.808872
     13          1           0        1.102856    9.921800  109.272407
     14          6           0       -0.664035   10.483421  103.505301
     15          1           0       -1.748072   10.608113  103.477492
     16          1           0       -0.214807   11.262244  102.888005
     17          6           0       -0.304560    9.128175  102.890282
     18          1           0       -0.723020    9.073178  101.883244
     19          1           0       -0.781824    8.339807  103.488575
     20          7           0        1.145393    8.989175  102.797413
     21          1           0        1.559766    9.035266  103.722342
     22          1           0        1.399234    8.092646  102.402592
 ---------------------------------------------------------------------
                    Distance matrix (angstroms):
                    1          2          3          4          5
     1  C    0.000000
     2  C    1.388301   0.000000
     3  C    2.418998   1.392414   0.000000
     4  C    2.768810   2.392271   1.392065   0.000000
     5  C    2.398820   2.765895   2.414258   1.383084   0.000000
     6  C    1.382382   2.400863   2.796943   2.406200   1.394676
     7  H    1.082249   2.160864   3.406809   3.850832   3.371181
     8  H    2.141950   1.083209   2.143761   3.375622   3.849038
     9  H    3.852159   3.385762   2.159699   1.083850   2.121562
    10  O    3.660002   4.136276   3.653853   2.371020   1.371074
    11  H    3.845104   4.550349   4.280776   3.108871   1.921218
    12  O    2.374966   3.647090   4.168302   3.667692   2.411795
    13  H    3.113755   4.273550   4.582637   3.853444   2.516782
    14  C    3.805175   2.527595   1.507033   2.514619   3.792148
    15  H    4.515524   3.342223   2.144025   2.700851   4.052846
    16  H    4.018501   2.638594   2.137623   3.383294   4.536948
    17  C    4.596843   3.418562   2.515358   3.262432   4.487632
    18  H    5.602031   4.348413   3.448331   4.202073   5.492708
    19  H    4.813416   3.839587   2.750903   3.007927   4.188057
    20  N    4.383944   3.308969   2.972423   3.907401   4.864271
    21  H    3.585176   2.719491   2.621254   3.465505   4.195759
    22  H    5.206420   4.241293   3.885672   4.658704   5.567946
                    6          7          8          9         10
     6  C    0.000000
     7  H    2.122228   0.000000
     8  H    3.379261   2.489712   0.000000
     9  H    3.376276   4.933987   4.286856   0.000000
    10  O    2.408611   4.526271   5.219256   2.566974   0.000000
    11  H    2.512551   4.562739   5.613939   3.406937   0.962934
    12  O    1.371706   2.576677   4.514711   4.529974   2.817009
    13  H    1.921797   3.419204   5.205750   4.566432   2.508171
    14  C    4.302709   4.685409   2.729913   2.735260   4.884486
    15  H    4.805554   5.459268   3.646284   2.548303   4.944421
    16  H    4.796939   4.724297   2.410420   3.741516   5.729485
    17  C    5.033640   5.431677   3.551460   3.311387   5.471327
    18  H    6.083180   6.408180   4.329330   4.095803   6.426243
    19  H    4.953317   5.737161   4.230180   2.811788   4.955444
    20  N    5.050335   5.003028   3.197176   4.265136   5.974686
    21  H    4.228165   4.172441   2.764312   4.011471   5.334721
    22  H    5.788424   5.785898   4.143857   4.910048   6.576382
                   11         12         13         14         15
    11  H    0.000000
    12  O    2.507229   0.000000
    13  H    2.192844   0.962742   0.000000
    14  C    5.596136   5.673507   6.057791   0.000000
    15  H    5.659157   6.160218   6.494602   1.091539   0.000000
    16  H    6.352672   6.143347   6.655345   1.090608   1.768130
    17  C    6.304392   6.347828   6.583478   1.531066   2.149129
    18  H    7.269904   7.413289   7.658571   2.150194   2.438930
    19  H    5.860146   6.206114   6.285494   2.146912   2.465556
    20  N    6.747144   6.262132   6.541953   2.451103   3.384613
    21  H    6.056614   5.367019   5.638965   2.662621   3.670912
    22  H    7.389798   6.929304   7.115335   3.344974   4.169954
                   16         17         18         19         20
    16  H    0.000000
    17  C    2.135957   0.000000
    18  H    2.461673   1.091905   0.000000
    19  H    3.036911   1.098753   1.765892   0.000000
    20  N    2.650508   1.459558   2.081760   2.147917   0.000000
    21  H    2.967265   2.043691   2.931694   2.453846   1.014556
    22  H    3.589862   2.052578   2.394812   2.448972   1.011970
                   21         22
    21  H    0.000000
    22  H    1.629737   0.000000
 Stoichiometry    C8H11NO2
 Framework group  C1[X(C8H11NO2)]
 Deg. of freedom    60
 Full point group                 C1      NOp   1
 Largest Abelian subgroup         C1      NOp   1
 Largest concise Abelian subgroup C1      NOp   1
                         Standard orientation:                         
 ---------------------------------------------------------------------
 Center     Atomic      Atomic             Coordinates (Angstroms)
 Number     Number       Type             X           Y           Z
 ---------------------------------------------------------------------
      1          6           0        0.978903   -1.565586   -0.306735
      2          6           0       -0.328149   -1.250001   -0.652281
      3          6           0       -0.774715    0.068697   -0.631536
      4          6           0        0.131616    1.070374   -0.295303
      5          6           0        1.443483    0.765168    0.018978
      6          6           0        1.862702   -0.564627    0.050981
      7          1           0        1.329398   -2.589438   -0.294816
      8          1           0       -1.015284   -2.040872   -0.927436
      9          1           0       -0.163603    2.113238   -0.298831
     10          8           0        2.309915    1.788351    0.305744
     11          1           0        3.188142    1.568620   -0.022399
     12          8           0        3.143159   -0.900571    0.410352
     13          1           0        3.454290   -0.299361    1.094909
     14          6           0       -2.212450    0.412536   -0.924518
     15          1           0       -2.267847    1.334166   -1.506744
     16          1           0       -2.670672   -0.387465   -1.507147
     17          6           0       -3.027657    0.587172    0.359656
     18          1           0       -4.047589    0.874638    0.096295
     19          1           0       -2.591004    1.414310    0.936229
     20          7           0       -3.077055   -0.671739    1.096548
     21          1           0       -2.139668   -0.960981    1.355330
     22          1           0       -3.603764   -0.569322    1.954554
 ---------------------------------------------------------------------
 Rotational constants (GHZ):           2.1802396           0.6583385           0.5725012
 Standard basis: def2TZVP (5D, 7F)
 There are   462 symmetry adapted cartesian basis functions of A   symmetry.
 There are   407 symmetry adapted basis functions of A   symmetry.
   407 basis functions,   649 primitive gaussians,   462 cartesian basis functions
    41 alpha electrons       41 beta electrons
       nuclear repulsion energy       605.7318205740 Hartrees.
 NAtoms=   22 NActive=   22 NUniq=   22 SFac= 1.00D+00 NAtFMM=   60 NAOKFM=F Big=F
 Integral buffers will be    131072 words long.
 Raffenetti 2 integral format.
 Two-electron integral symmetry is turned on.
 One-electron integrals computed using PRISM.
   1 Symmetry operations used in ECPInt.
 ECPInt:  NShTT=   13695 NPrTT=   41316 LenC2=   12986 LenP2D=   30201.
 LDataN:  DoStor=T MaxTD1= 6 Len=  172
 NBasis=   407 RedAO= T EigKep=  8.72D-06  NBF=   407
 NBsUse=   407 1.00D-06 EigRej= -1.00D+00 NBFU=   407
 Initial guess from the checkpoint file:  "/home/data/vip13t32/docs/g16out/mol_for_md/dop/vac.chk"
 B after Tr=    -0.000000   -0.000000   -0.000000
         Rot=    0.999995   -0.000967   -0.001291   -0.002800 Ang=  -0.37 deg.
 ExpMin= 9.52D-02 ExpMax= 2.70D+04 ExpMxC= 9.22D+02 IAcc=3 IRadAn=         5 AccDes= 0.00D+00
 Harris functional with IExCor= 1009 and IRadAn=       5 diagonalized for initial guess.
 HarFok:  IExCor= 1009 AccDes= 0.00D+00 IRadAn=         5 IDoV= 1 UseB2=F ITyADJ=14
 ICtDFT=  3500011 ScaDFX=  1.000000  1.000000  1.000000  1.000000
 FoFCou: FMM=F IPFlag=           0 FMFlag=      100000 FMFlg1=           0
         NFxFlg=           0 DoJE=T BraDBF=F KetDBF=T FulRan=T
         wScrn=  0.000000 ICntrl=       500 IOpCl=  0 I1Cent=   200000004 NGrid=           0
         NMat0=    1 NMatS0=      1 NMatT0=    0 NMatD0=    1 NMtDS0=    0 NMtDT0=    0
 Petite list used in FoFCou.
 Requested convergence on RMS density matrix=1.00D-08 within 128 cycles.
 Requested convergence on MAX density matrix=1.00D-06.
 Requested convergence on             energy=1.00D-06.
 No special actions if energy rises.
 Integral accuracy reduced to 1.0D-05 until final iterations.
 Initial convergence to 1.0D-05 achieved.  Increase integral accuracy.
 SCF Done:  E(RM062X) =  -516.652354169     A.U. after   12 cycles
            NFock= 12  Conv=0.92D-08     -V/T= 2.0047
   1 Symmetry operations used in ECPInt.
 ECPInt:  NShTT=   13695 NPrTT=   41316 LenC2=   12986 LenP2D=   30201.
 LDataN:  DoStor=T MaxTD1= 7 Len=  274
 Calling FoFJK, ICntrl=      2127 FMM=F ISym2X=0 I1Cent= 0 IOpClX= 0 NMat=1 NMatS=1 NMatT=0.
 ***** Axes restored to original set *****
 -------------------------------------------------------------------
 Center     Atomic                   Forces (Hartrees/Bohr)
 Number     Number              X              Y              Z
 -------------------------------------------------------------------
      1        6           0.000322565   -0.000640001   -0.000849807
      2        6          -0.000113208    0.000344659   -0.000317225
      3        6           0.000078908    0.000364287   -0.000656035
      4        6          -0.000127875    0.000707032   -0.000231499
      5        6          -0.002010868    0.002051961    0.000072873
      6        6           0.001866088   -0.001950205   -0.000628266
      7        1          -0.000079532   -0.000132565   -0.000109438
      8        1          -0.000136247   -0.000270132   -0.000048329
      9        1          -0.000019166    0.000118030    0.000121654
     10        8           0.002494951   -0.002649111    0.000946201
     11        1          -0.000056897    0.001449029    0.000146619
     12        8          -0.003092199    0.002124141    0.001413337
     13        1           0.000241076   -0.001490220   -0.000504327
     14        6           0.001971272   -0.001296118   -0.000748301
     15        1          -0.000126167    0.000116333    0.000286812
     16        1          -0.000401878    0.000860059   -0.000016947
     17        6          -0.000089679    0.000180382    0.001840929
     18        1           0.000625119    0.000038403    0.000030934
     19        1          -0.000116303   -0.000353614   -0.000299139
     20        7          -0.000622153    0.000519572   -0.000045752
     21        1          -0.000377326   -0.000073153    0.000023495
     22        1          -0.000230480   -0.000018766   -0.000427789
 -------------------------------------------------------------------
 Cartesian Forces:  Max     0.003092199 RMS     0.000998531

 GradGradGradGradGradGradGradGradGradGradGradGradGradGradGradGradGradGrad
 Berny optimization.
 Using GEDIIS/GDIIS optimizer.
 FormGI is forming the generalized inverse of G from B-inverse, IUseBI=4.
 Internal  Forces:  Max     0.003615976 RMS     0.000793508
 Search for a local minimum.
 Step number   2 out of a maximum of  116
 All quantities printed in internal units (Hartrees-Bohrs-Radians)
 Mixed Optimization -- En-DIIS/RFO-DIIS
 Update second derivatives using D2CorX and points    1    2
 DE= -1.50D-03 DEPred=-1.54D-03 R= 9.73D-01
 TightC=F SS=  1.41D+00  RLast= 3.71D-01 DXNew= 5.0454D-01 1.1130D+00
 Trust test= 9.73D-01 RLast= 3.71D-01 DXMaxT set to 5.05D-01
 ITU=  1  0
 Use linear search instead of GDIIS.
     Eigenvalues ---    0.00327   0.00747   0.00970   0.01447   0.01635
     Eigenvalues ---    0.02015   0.02176   0.02182   0.02251   0.02267
     Eigenvalues ---    0.02277   0.02290   0.02300   0.02538   0.04291
     Eigenvalues ---    0.04332   0.04536   0.05502   0.05657   0.09021
     Eigenvalues ---    0.09161   0.12580   0.12729   0.15837   0.15994
     Eigenvalues ---    0.15998   0.15999   0.16000   0.16000   0.16316
     Eigenvalues ---    0.21793   0.21917   0.22325   0.23483   0.24591
     Eigenvalues ---    0.24981   0.24998   0.26716   0.28888   0.32530
     Eigenvalues ---    0.33441   0.34328   0.34692   0.34816   0.36089
     Eigenvalues ---    0.36148   0.36331   0.38695   0.42280   0.43560
     Eigenvalues ---    0.45063   0.45324   0.46959   0.47675   0.48138
     Eigenvalues ---    0.48471   0.49895   0.49978   0.54263   0.55012
 RFO step:  Lambda=-7.01643055D-04 EMin= 3.26838777D-03
 Quartic linear search produced a step of  0.11593.
 Iteration  1 RMS(Cart)=  0.02134642 RMS(Int)=  0.00069409
 Iteration  2 RMS(Cart)=  0.00078885 RMS(Int)=  0.00005928
 Iteration  3 RMS(Cart)=  0.00000159 RMS(Int)=  0.00005926
 Iteration  4 RMS(Cart)=  0.00000000 RMS(Int)=  0.00005926
 Variable       Old X    -DE/DX   Delta X   Delta X   Delta X     New X
                                 (Linear)    (Quad)   (Total)
    R1        2.62351   0.00015   0.00113   0.00168   0.00280   2.62631
    R2        2.61232   0.00062  -0.00059   0.00070   0.00012   2.61245
    R3        2.04515  -0.00015   0.00086   0.00053   0.00139   2.04654
    R4        2.63128  -0.00021   0.00087   0.00058   0.00143   2.63271
    R5        2.04697  -0.00015   0.00086   0.00053   0.00139   2.04836
    R6        2.63062   0.00058   0.00075   0.00224   0.00298   2.63360
    R7        2.84788  -0.00081   0.00122  -0.00139  -0.00017   2.84771
    R8        2.61365   0.00015  -0.00028  -0.00001  -0.00028   2.61337
    R9        2.04818  -0.00006   0.00104   0.00102   0.00206   2.05024
   R10        2.63556  -0.00173  -0.00095  -0.00535  -0.00628   2.62927
   R11        2.59095  -0.00008  -0.00098  -0.00130  -0.00228   2.58867
   R12        2.59215  -0.00021  -0.00086  -0.00146  -0.00233   2.58982
   R13        1.81968   0.00092  -0.00059   0.00118   0.00058   1.82027
   R14        1.81932   0.00095  -0.00067   0.00117   0.00050   1.81982
   R15        2.06271   0.00013   0.00011   0.00055   0.00067   2.06338
   R16        2.06095   0.00046   0.00017   0.00164   0.00181   2.06276
   R17        2.89329  -0.00090  -0.00088  -0.00441  -0.00529   2.88801
   R18        2.06340  -0.00027  -0.00047  -0.00141  -0.00188   2.06152
   R19        2.07634   0.00014  -0.00111  -0.00080  -0.00190   2.07444
   R20        2.75816  -0.00124   0.00140  -0.00199  -0.00059   2.75758
   R21        1.91723  -0.00014  -0.00020  -0.00056  -0.00076   1.91647
   R22        1.91235   0.00013  -0.00046  -0.00022  -0.00067   1.91167
    A1        2.09639  -0.00033  -0.00040  -0.00184  -0.00222   2.09417
    A2        2.12081   0.00010   0.00046   0.00082   0.00126   2.12207
    A3        2.06589   0.00023  -0.00007   0.00111   0.00102   2.06690
    A4        2.11008  -0.00020   0.00019  -0.00031  -0.00013   2.10995
    A5        2.08804   0.00031   0.00016   0.00190   0.00206   2.09010
    A6        2.08496  -0.00011  -0.00036  -0.00159  -0.00195   2.08301
    A7        2.06719   0.00021  -0.00068   0.00051  -0.00018   2.06701
    A8        2.11665  -0.00024   0.00022  -0.00103  -0.00081   2.11584
    A9        2.09892   0.00003   0.00046   0.00042   0.00089   2.09981
   A10        2.11022  -0.00034  -0.00008  -0.00156  -0.00162   2.10860
   A11        2.11090   0.00028   0.00010   0.00168   0.00175   2.11266
   A12        2.06170   0.00006  -0.00005   0.00003  -0.00003   2.06166
   A13        2.09523   0.00015   0.00059   0.00124   0.00180   2.09703
   A14        2.07401   0.00310  -0.00057   0.01293   0.01224   2.08625
   A15        2.11390  -0.00325  -0.00000  -0.01437  -0.01448   2.09943
   A16        2.08551   0.00052   0.00029   0.00249   0.00276   2.08827
   A17        2.07975   0.00309  -0.00049   0.01293   0.01232   2.09206
   A18        2.11778  -0.00362   0.00020  -0.01580  -0.01570   2.10208
   A19        1.91217  -0.00143  -0.00005  -0.00987  -0.00991   1.90226
   A20        1.91242  -0.00141  -0.00008  -0.00978  -0.00986   1.90257
   A21        1.92278  -0.00027   0.00038  -0.00506  -0.00471   1.91807
   A22        1.91488  -0.00023  -0.00080  -0.00053  -0.00138   1.91350
   A23        1.95080   0.00016   0.00198   0.00372   0.00568   1.95648
   A24        1.88923  -0.00019  -0.00159  -0.00510  -0.00671   1.88252
   A25        1.90081  -0.00003   0.00053  -0.00088  -0.00036   1.90045
   A26        1.88393   0.00057  -0.00058   0.00782   0.00723   1.89116
   A27        1.90189  -0.00000  -0.00069  -0.00358  -0.00428   1.89761
   A28        1.89062   0.00055  -0.00088   0.00736   0.00647   1.89709
   A29        1.92101  -0.00023   0.00045  -0.00058  -0.00015   1.92086
   A30        1.87506  -0.00006  -0.00124  -0.00149  -0.00273   1.87233
   A31        1.89361  -0.00032   0.00209  -0.00549  -0.00341   1.89020
   A32        1.97994   0.00006   0.00021   0.00345   0.00365   1.98359
   A33        1.92134  -0.00047   0.00070  -0.00257  -0.00187   1.91947
   A34        1.93733  -0.00032   0.00107  -0.00110  -0.00003   1.93730
   A35        1.86866   0.00037  -0.00168   0.00035  -0.00134   1.86733
    D1       -0.01208   0.00000  -0.00052   0.00010  -0.00040  -0.01247
    D2       -3.13727  -0.00000   0.00010   0.00051   0.00060  -3.13667
    D3        3.11375   0.00017  -0.00143   0.00685   0.00550   3.11925
    D4       -0.01145   0.00017  -0.00081   0.00726   0.00650  -0.00495
    D5       -0.03678   0.00016  -0.00084   0.00698   0.00616  -0.03063
    D6        3.12276   0.00069  -0.00100   0.03101   0.03024  -3.13018
    D7        3.12009  -0.00000   0.00005   0.00044   0.00044   3.12053
    D8       -0.00355   0.00052  -0.00012   0.02447   0.02453   0.02098
    D9        0.03374  -0.00011   0.00103  -0.00422  -0.00321   0.03053
   D10       -3.07674  -0.00005   0.00081  -0.00029   0.00051  -3.07622
   D11       -3.12422  -0.00010   0.00041  -0.00459  -0.00417  -3.12839
   D12        0.04849  -0.00004   0.00019  -0.00067  -0.00045   0.04804
   D13       -0.00661   0.00001  -0.00021   0.00110   0.00091  -0.00570
   D14        3.10547   0.00018  -0.00195   0.00707   0.00519   3.11066
   D15        3.10420  -0.00006   0.00000  -0.00281  -0.00281   3.10139
   D16       -0.06691   0.00011  -0.00174   0.00316   0.00147  -0.06544
   D17       -2.47188   0.00010   0.00233  -0.00012   0.00219  -2.46968
   D18       -0.39369  -0.00045   0.00010  -0.00983  -0.00973  -0.40342
   D19        1.69549   0.00022   0.00012   0.00199   0.00210   1.69759
   D20        0.70139   0.00017   0.00213   0.00387   0.00601   0.70740
   D21        2.77957  -0.00038  -0.00010  -0.00584  -0.00592   2.77366
   D22       -1.41443   0.00028  -0.00008   0.00599   0.00591  -1.40851
   D23       -0.04198   0.00016  -0.00114   0.00598   0.00486  -0.03712
   D24        3.10863   0.00070  -0.00214   0.03073   0.02882   3.13745
   D25        3.12832  -0.00001   0.00056   0.00015   0.00066   3.12899
   D26       -0.00425   0.00053  -0.00044   0.02490   0.02463   0.02038
   D27        0.06359  -0.00024   0.00167  -0.00995  -0.00831   0.05529
   D28       -3.09635  -0.00070   0.00184  -0.03421  -0.03224  -3.12859
   D29       -3.08722  -0.00075   0.00269  -0.03513  -0.03232  -3.11954
   D30        0.03602  -0.00122   0.00286  -0.05939  -0.05625  -0.02023
   D31       -2.53146   0.00044   0.01480   0.03891   0.05372  -2.47774
   D32        0.61925   0.00096   0.01378   0.06385   0.07763   0.69688
   D33       -2.54259   0.00062   0.01510   0.04863   0.06375  -2.47884
   D34        0.61730   0.00111   0.01493   0.07292   0.08783   0.70513
   D35        3.10128   0.00017   0.00889   0.02089   0.02977   3.13105
   D36        1.06644  -0.00007   0.01125   0.02056   0.03180   1.09824
   D37       -1.10738  -0.00035   0.01128   0.01168   0.02295  -1.08443
   D38        0.97279   0.00042   0.00680   0.02545   0.03224   1.00503
   D39       -1.06205   0.00019   0.00916   0.02511   0.03427  -1.02778
   D40        3.04731  -0.00010   0.00919   0.01624   0.02542   3.07273
   D41       -1.07461   0.00035   0.00873   0.02766   0.03641  -1.03820
   D42       -3.10945   0.00012   0.01109   0.02733   0.03844  -3.07100
   D43        0.99992  -0.00017   0.01112   0.01845   0.02959   1.02951
   D44        1.06379   0.00047   0.00223   0.02472   0.02695   1.09074
   D45        3.12965   0.00043   0.00126   0.02284   0.02410  -3.12944
   D46       -3.13980   0.00014   0.00290   0.01671   0.01962  -3.12019
   D47       -1.07395   0.00011   0.00192   0.01483   0.01676  -1.05719
   D48       -1.05763  -0.00011   0.00289   0.01324   0.01612  -1.04151
   D49        1.00823  -0.00015   0.00192   0.01135   0.01327   1.02149
         Item               Value     Threshold  Converged?
 Maximum Force            0.003616     0.000450     NO 
 RMS     Force            0.000794     0.000300     NO 
 Maximum Displacement     0.095199     0.001800     NO 
 RMS     Displacement     0.021374     0.001200     NO 
 Predicted change in Energy=-3.788652D-04
 GradGradGradGradGradGradGradGradGradGradGradGradGradGradGradGradGradGrad

                          Input orientation:                          
 ---------------------------------------------------------------------
 Center     Atomic      Atomic             Coordinates (Angstroms)
 Number     Number       Type             X           Y           Z
 ---------------------------------------------------------------------
      1          6           0        1.529734   11.297085  106.509512
      2          6           0        1.037496   11.254493  105.210518
      3          6           0       -0.161846   10.607459  104.920951
      4          6           0       -0.877021   10.034546  105.970966
      5          6           0       -0.404496   10.100434  107.269001
      6          6           0        0.819618   10.704951  107.537263
      7          1           0        2.470724   11.779162  106.744013
      8          1           0        1.599642   11.716030  104.406834
      9          1           0       -1.829779    9.545322  105.797751
     10          8           0       -1.131256    9.532483  108.281811
     11          1           0       -1.073944   10.094444  109.062037
     12          8           0        1.300637   10.760050  108.819366
     13          1           0        1.119096    9.922576  109.258757
     14          6           0       -0.660919   10.484266  103.504398
     15          1           0       -1.745196   10.610668  103.480093
     16          1           0       -0.218362   11.270428  102.889902
     17          6           0       -0.306410    9.132669  102.885438
     18          1           0       -0.701131    9.098620  101.869014
     19          1           0       -0.808702    8.341360  103.456910
     20          7           0        1.143028    8.977141  102.819546
     21          1           0        1.535205    8.984889  103.754770
     22          1           0        1.393883    8.090925  102.401150
[...]
     22          1           0       -3.634586   -0.499542    1.951543
 ---------------------------------------------------------------------
 Rotational constants (GHZ):           2.2190720           0.6577655           0.5735423

 **********************************************************************

            Population analysis using the SCF Density.

 **********************************************************************

 Orbital symmetries:
       Occupied  (A) (A) (A) (A) (A) (A) (A) (A) (A) (A) (A) (A)
                 (A) (A) (A) (A) (A) (A) (A) (A) (A) (A) (A) (A)
                 (A) (A) (A) (A) (A) (A) (A) (A) (A) (A) (A) (A)
                 (A) (A) (A) (A) (A)
       Virtual   (A) (A) (A) (A) (A) (A) (A) (A) (A) (A) (A) (A)
                 (A) (A) (A) (A) (A) (A) (A) (A) (A) (A) (A) (A)
                 (A) (A) (A) (A) (A) (A) (A) (A) (A) (A) (A) (A)
                 (A) (A) (A) (A) (A) (A) (A) (A) (A) (A) (A) (A)
                 (A) (A) (A) (A) (A) (A) (A) (A) (A) (A) (A) (A)
                 (A) (A) (A) (A) (A) (A) (A) (A) (A) (A) (A) (A)
                 (A) (A) (A) (A) (A) (A) (A) (A) (A) (A) (A) (A)
                 (A) (A) (A) (A) (A) (A) (A) (A) (A) (A) (A) (A)
                 (A) (A) (A) (A) (A) (A) (A) (A) (A) (A) (A) (A)
                 (A) (A) (A) (A) (A) (A) (A) (A) (A) (A) (A) (A)
                 (A) (A) (A) (A) (A) (A) (A) (A) (A) (A) (A) (A)
                 (A) (A) (A) (A) (A) (A) (A) (A) (A) (A) (A) (A)
                 (A) (A) (A) (A) (A) (A) (A) (A) (A) (A) (A) (A)
                 (A) (A) (A) (A) (A) (A) (A) (A) (A) (A) (A) (A)
                 (A) (A) (A) (A) (A) (A) (A) (A) (A) (A) (A) (A)
                 (A) (A) (A) (A) (A) (A) (A) (A) (A) (A) (A) (A)
                 (A) (A) (A) (A) (A) (A) (A) (A) (A) (A) (A) (A)
                 (A) (A) (A) (A) (A) (A) (A) (A) (A) (A) (A) (A)
                 (A) (A) (A) (A) (A) (A) (A) (A) (A) (A) (A) (A)
                 (A) (A) (A) (A) (A) (A) (A) (A) (A) (A) (A) (A)
                 (A) (A) (A) (A) (A) (A) (A) (A) (A) (A) (A) (A)
                 (A) (A) (A) (A) (A) (A) (A) (A) (A) (A) (A) (A)
                 (A) (A) (A) (A) (A) (A) (A) (A) (A) (A) (A) (A)
                 (A) (A) (A) (A) (A) (A) (A) (A) (A) (A) (A) (A)
                 (A) (A) (A) (A) (A) (A) (A) (A) (A) (A) (A) (A)
                 (A) (A) (A) (A) (A) (A) (A) (A) (A) (A) (A) (A)
                 (A) (A) (A) (A) (A) (A) (A) (A) (A) (A) (A) (A)
                 (A) (A) (A) (A) (A) (A) (A) (A) (A) (A) (A) (A)
                 (A) (A) (A) (A) (A) (A) (A) (A) (A) (A) (A) (A)
                 (A) (A) (A) (A) (A) (A) (A) (A) (A) (A) (A) (A)
                 (A) (A) (A) (A) (A) (A)
 The electronic state is 1-A.
 Alpha  occ. eigenvalues --  -19.66980 -19.65069 -14.71896 -10.60247 -10.59963
 Alpha  occ. eigenvalues --  -10.55476 -10.54564 -10.54261 -10.53493 -10.53460
 Alpha  occ. eigenvalues --  -10.53078  -1.20744  -1.17539  -0.98851  -0.95909
 Alpha  occ. eigenvalues --   -0.87117  -0.84253  -0.80176  -0.73070  -0.69833
 Alpha  occ. eigenvalues --   -0.67803  -0.63233  -0.60428  -0.56593  -0.56351
 Alpha  occ. eigenvalues --   -0.53227  -0.52923  -0.52156  -0.50177  -0.48897
 Alpha  occ. eigenvalues --   -0.47251  -0.46095  -0.45118  -0.44190  -0.42394
 Alpha  occ. eigenvalues --   -0.40732  -0.39451  -0.39075  -0.30526  -0.29619
 Alpha  occ. eigenvalues --   -0.26716
 Alpha virt. eigenvalues --    0.02441   0.04200   0.04731   0.07008   0.08686
 Alpha virt. eigenvalues --    0.09513   0.10534   0.11615   0.12241   0.13954
 Alpha virt. eigenvalues --    0.14593   0.17101   0.17151   0.18183   0.19300
 Alpha virt. eigenvalues --    0.20752   0.21318   0.22404   0.22961   0.24401
 Alpha virt. eigenvalues --    0.25589   0.26392   0.26477   0.28809   0.29622
 Alpha virt. eigenvalues --    0.30450   0.30591   0.33069   0.33144   0.33597
 Alpha virt. eigenvalues --    0.35219   0.35566   0.36457   0.37173   0.38045
 Alpha virt. eigenvalues --    0.38600   0.38930   0.40660   0.40788   0.41489
 Alpha virt. eigenvalues --    0.42326   0.43441   0.44166   0.44804   0.45933
 Alpha virt. eigenvalues --    0.46436   0.47180   0.47947   0.48737   0.49006
 Alpha virt. eigenvalues --    0.50013   0.50315   0.51661   0.52844   0.53655
 Alpha virt. eigenvalues --    0.54717   0.55397   0.57050   0.57320   0.57899
 Alpha virt. eigenvalues --    0.59380   0.59634   0.60550   0.62609   0.63248
 Alpha virt. eigenvalues --    0.65314   0.65925   0.66419   0.68467   0.69197
 Alpha virt. eigenvalues --    0.70128   0.72130   0.75162   0.76302   0.76670
 Alpha virt. eigenvalues --    0.77318   0.78857   0.80805   0.81479   0.81722
 Alpha virt. eigenvalues --    0.85279   0.85872   0.86453   0.87857   0.90357
 Alpha virt. eigenvalues --    0.91025   0.91599   0.92557   0.94094   0.94644
 Alpha virt. eigenvalues --    0.97826   0.98649   1.02843   1.04700   1.05780
 Alpha virt. eigenvalues --    1.08628   1.10452   1.11212   1.12851   1.14072
 Alpha virt. eigenvalues --    1.16464   1.17607   1.19166   1.22304   1.22912
 Alpha virt. eigenvalues --    1.23831   1.25541   1.27154   1.27415   1.29599
 Alpha virt. eigenvalues --    1.30912   1.34570   1.35783   1.37598   1.38535
 Alpha virt. eigenvalues --    1.39117   1.40499   1.42329   1.43933   1.44848
 Alpha virt. eigenvalues --    1.46019   1.47989   1.49380   1.51043   1.51164
 Alpha virt. eigenvalues --    1.55146   1.56656   1.57876   1.58300   1.60080
 Alpha virt. eigenvalues --    1.63262   1.64304   1.65652   1.67799   1.68036
 Alpha virt. eigenvalues --    1.71117   1.71490   1.72937   1.73667   1.74806
 Alpha virt. eigenvalues --    1.75395   1.76830   1.78686   1.79276   1.81333
 Alpha virt. eigenvalues --    1.83853   1.85233   1.87821   1.88349   1.89683
 Alpha virt. eigenvalues --    1.91086   1.92967   1.93706   1.96390   1.97086
 Alpha virt. eigenvalues --    1.98357   1.99811   2.00684   2.03279   2.04240
 Alpha virt. eigenvalues --    2.05878   2.06493   2.08905   2.09803   2.12958
 Alpha virt. eigenvalues --    2.13661   2.15000   2.17541   2.19992   2.20719
 Alpha virt. eigenvalues --    2.21628   2.22536   2.23807   2.25709   2.27829
 Alpha virt. eigenvalues --    2.28563   2.32112   2.33033   2.36603   2.37069
 Alpha virt. eigenvalues --    2.39347   2.42852   2.45116   2.46403   2.47845
 Alpha virt. eigenvalues --    2.49989   2.50529   2.51290   2.53668   2.55333
 Alpha virt. eigenvalues --    2.55797   2.59225   2.59475   2.59746   2.61846
 Alpha virt. eigenvalues --    2.65204   2.65557   2.67072   2.67545   2.68497
 Alpha virt. eigenvalues --    2.69235   2.70881   2.72312   2.73937   2.75547
 Alpha virt. eigenvalues --    2.76099   2.77398   2.78375   2.79827   2.80285
 Alpha virt. eigenvalues --    2.82572   2.84141   2.85826   2.87038   2.89809
 Alpha virt. eigenvalues --    2.90720   2.91372   2.92662   2.94266   2.95135
 Alpha virt. eigenvalues --    2.96994   2.97920   2.99779   3.02284   3.02738
 Alpha virt. eigenvalues --    3.04974   3.05775   3.06748   3.08350   3.09994
 Alpha virt. eigenvalues --    3.10809   3.11757   3.15056   3.16087   3.18528
 Alpha virt. eigenvalues --    3.19336   3.20164   3.21953   3.22859   3.23833
 Alpha virt. eigenvalues --    3.25443   3.26376   3.27636   3.28372   3.30609
 Alpha virt. eigenvalues --    3.31240   3.32628   3.34574   3.36407   3.37300
 Alpha virt. eigenvalues --    3.37869   3.38958   3.41114   3.41855   3.43514
 Alpha virt. eigenvalues --    3.45275   3.46464   3.47144   3.47481   3.50188
 Alpha virt. eigenvalues --    3.50741   3.52055   3.53636   3.56515   3.56725
 Alpha virt. eigenvalues --    3.60716   3.65076   3.68416   3.69208   3.72127
 Alpha virt. eigenvalues --    3.72835   3.74928   3.79761   3.82184   3.84661
 Alpha virt. eigenvalues --    3.86052   3.88053   3.92410   3.92840   3.93997
 Alpha virt. eigenvalues --    3.97872   4.00131   4.03111   4.03989   4.07861
 Alpha virt. eigenvalues --    4.09738   4.10885   4.13727   4.15001   4.15877
 Alpha virt. eigenvalues --    4.18230   4.19733   4.20830   4.26940   4.29558
 Alpha virt. eigenvalues --    4.31778   4.33039   4.33771   4.35820   4.40204
 Alpha virt. eigenvalues --    4.42807   4.45812   4.47620   4.49706   4.55033
 Alpha virt. eigenvalues --    4.56990   4.61503   4.66088   4.67476   4.71682
 Alpha virt. eigenvalues --    4.76962   4.79385   4.82875   4.83989   4.87928
 Alpha virt. eigenvalues --    4.89616   4.91178   4.92987   4.94936   5.05937
 Alpha virt. eigenvalues --    5.08905   5.09957   5.11847   5.19716   5.23496
 Alpha virt. eigenvalues --    5.26198   5.27552   5.29996   5.30787   5.41710
 Alpha virt. eigenvalues --    5.43934   5.44896   5.52212   5.53097   5.53849
 Alpha virt. eigenvalues --    5.60037   5.67952   5.77614   5.85437   5.88585
 Alpha virt. eigenvalues --    6.05005   6.15908   6.30010   6.38929   6.40153
 Alpha virt. eigenvalues --    6.43887   6.52330   6.65688   6.75514   6.76371
 Alpha virt. eigenvalues --    6.82396   6.96508   6.98719   7.21570   7.34622
 Alpha virt. eigenvalues --   22.28433  22.55676  22.69512  22.85100  22.89589
 Alpha virt. eigenvalues --   23.01078  23.12274  23.54566  32.09032  43.99101
 Alpha virt. eigenvalues --   44.20747
          Condensed to atoms (all electrons):
               1          2          3          4          5          6
     1  C    5.322407   0.180573   0.089236  -0.095899   0.066960   0.322061
     2  C    0.180573   5.470721   0.236884  -0.005536  -0.106992   0.103125
     3  C    0.089236   0.236884   5.313197   0.417248   0.032601  -0.158050
     4  C   -0.095899  -0.005536   0.417248   5.134161   0.512374  -0.004164
     5  C    0.066960  -0.106992   0.032601   0.512374   4.800317   0.257481
     6  C    0.322061   0.103125  -0.158050  -0.004164   0.257481   5.186922
     7  H    0.378265   0.001124   0.003101   0.001717   0.002773  -0.032887
     8  H   -0.029095   0.414811  -0.043375   0.010391  -0.003005   0.005933
     9  H   -0.007622   0.015882  -0.056684   0.397243  -0.031007   0.022501
    10  O    0.011192  -0.002303   0.000806  -0.060135   0.363836  -0.104761
    11  H    0.005422  -0.001463   0.000676   0.007125  -0.019433  -0.038263
    12  O   -0.086381   0.007128   0.001871  -0.003274  -0.062792   0.290068
    13  H   -0.008336   0.005292  -0.000696  -0.000115   0.007906  -0.036789
    14  C    0.009478  -0.058636   0.215659  -0.064788   0.008635  -0.002365
    15  H   -0.002349   0.012477  -0.043659  -0.012166  -0.000618   0.000632
    16  H   -0.000045   0.003556  -0.077717   0.008108  -0.000926   0.000540
    17  C    0.001759  -0.008519  -0.036861  -0.013654   0.003136   0.000015
    18  H    0.000007  -0.001589   0.016326   0.000714  -0.000033  -0.000015
    19  H   -0.001457   0.012665  -0.029411  -0.002479  -0.000495   0.000764
    20  N   -0.000220   0.000687   0.013745  -0.001808   0.001214  -0.000535
    21  H    0.003703  -0.019681   0.027719  -0.002065   0.000944  -0.001320
    22  H    0.000219  -0.000777  -0.001606  -0.000371   0.000032  -0.000054
               7          8          9         10         11         12
     1  C    0.378265  -0.029095  -0.007622   0.011192   0.005422  -0.086381
     2  C    0.001124   0.414811   0.015882  -0.002303  -0.001463   0.007128
     3  C    0.003101  -0.043375  -0.056684   0.000806   0.000676   0.001871
     4  C    0.001717   0.010391   0.397243  -0.060135   0.007125  -0.003274
     5  C    0.002773  -0.003005  -0.031007   0.363836  -0.019433  -0.062792
     6  C   -0.032887   0.005933   0.022501  -0.104761  -0.038263   0.290068
     7  H    0.507831  -0.003106   0.000034  -0.000076  -0.000003  -0.002446
     8  H   -0.003106   0.483769  -0.000087   0.000017  -0.000004  -0.000148
     9  H    0.000034  -0.000087   0.497537   0.005173  -0.000854  -0.000148
    10  O   -0.000076   0.000017   0.005173   7.912672   0.313220  -0.005244
    11  H   -0.000003  -0.000004  -0.000854   0.313220   0.378471   0.014189
    12  O   -0.002446  -0.000148  -0.000148  -0.005244   0.014189   8.018912
    13  H    0.003736  -0.000018   0.000044  -0.000272  -0.001189   0.314851
    14  C   -0.000273  -0.000963  -0.000330  -0.000154   0.000046   0.000012
    15  H    0.000003   0.000584   0.000683  -0.000022   0.000000  -0.000001
    16  H   -0.000079   0.001323   0.000379   0.000004  -0.000001  -0.000001
    17  C    0.000018  -0.001719  -0.000806   0.000037  -0.000006   0.000000
    18  H   -0.000001  -0.000095  -0.000155   0.000000   0.000000   0.000000
    19  H   -0.000012   0.000372   0.002293  -0.000009  -0.000000   0.000000
    20  N   -0.000070   0.004793  -0.000355  -0.000002   0.000000  -0.000000
    21  H    0.000053  -0.001796  -0.000259  -0.000002   0.000000   0.000000
    22  H    0.000004  -0.000179  -0.000033   0.000000  -0.000000   0.000000
              13         14         15         16         17         18
     1  C   -0.008336   0.009478  -0.002349  -0.000045   0.001759   0.000007
     2  C    0.005292  -0.058636   0.012477   0.003556  -0.008519  -0.001589
     3  C   -0.000696   0.215659  -0.043659  -0.077717  -0.036861   0.016326
     4  C   -0.000115  -0.064788  -0.012166   0.008108  -0.013654   0.000714
     5  C    0.007906   0.008635  -0.000618  -0.000926   0.003136  -0.000033
     6  C   -0.036789  -0.002365   0.000632   0.000540   0.000015  -0.000015
     7  H    0.003736  -0.000273   0.000003  -0.000079   0.000018  -0.000001
     8  H   -0.000018  -0.000963   0.000584   0.001323  -0.001719  -0.000095
     9  H    0.000044  -0.000330   0.000683   0.000379  -0.000806  -0.000155
    10  O   -0.000272  -0.000154  -0.000022   0.000004   0.000037   0.000000
    11  H   -0.001189   0.000046   0.000000  -0.000001  -0.000006   0.000000
    12  O    0.314851   0.000012  -0.000001  -0.000001   0.000000   0.000000
    13  H    0.383954  -0.000003   0.000000   0.000000   0.000000  -0.000000
    14  C   -0.000003   5.267657   0.432399   0.442830   0.252274  -0.043120
    15  H    0.000000   0.432399   0.529055  -0.012791  -0.062833  -0.002387
    16  H    0.000000   0.442830  -0.012791   0.513567  -0.036643  -0.005983
    17  C    0.000000   0.252274  -0.062833  -0.036643   5.031545   0.414443
    18  H   -0.000000  -0.043120  -0.002387  -0.005983   0.414443   0.562314
    19  H    0.000000  -0.048269   0.003219   0.007495   0.454342  -0.038000
    20  N   -0.000000  -0.073088   0.006255   0.006705   0.238596  -0.031034
    21  H   -0.000000  -0.014676  -0.000427  -0.000741  -0.045460   0.008119
    22  H   -0.000000   0.015398  -0.000561  -0.000859  -0.048680  -0.005819
              19         20         21         22
     1  C   -0.001457  -0.000220   0.003703   0.000219
     2  C    0.012665   0.000687  -0.019681  -0.000777
     3  C   -0.029411   0.013745   0.027719  -0.001606
     4  C   -0.002479  -0.001808  -0.002065  -0.000371
     5  C   -0.000495   0.001214   0.000944   0.000032
     6  C    0.000764  -0.000535  -0.001320  -0.000054
     7  H   -0.000012  -0.000070   0.000053   0.000004
     8  H    0.000372   0.004793  -0.001796  -0.000179
     9  H    0.002293  -0.000355  -0.000259  -0.000033
    10  O   -0.000009  -0.000002  -0.000002   0.000000
    11  H   -0.000000   0.000000   0.000000  -0.000000
    12  O    0.000000  -0.000000   0.000000   0.000000
    13  H    0.000000  -0.000000  -0.000000  -0.000000
    14  C   -0.048269  -0.073088  -0.014676   0.015398
    15  H    0.003219   0.006255  -0.000427  -0.000561
    16  H    0.007495   0.006705  -0.000741  -0.000859
    17  C    0.454342   0.238596  -0.045460  -0.048680
    18  H   -0.038000  -0.031034   0.008119  -0.005819
    19  H    0.582100  -0.063138  -0.007198  -0.006223
    20  N   -0.063138   6.724008   0.367410   0.365911
    21  H   -0.007198   0.367410   0.469754  -0.029433
    22  H   -0.006223   0.365911  -0.029433   0.489034
 Mulliken charges:
               1
     1  C   -0.159876
     2  C   -0.259430
     3  C    0.078990
     4  C   -0.222626
     5  C    0.167091
     6  C    0.189162
     7  H    0.140296
     8  H    0.161595
     9  H    0.156570
    10  O   -0.433980
    11  H    0.342066
    12  O   -0.486597
    13  H    0.331636
    14  C   -0.337723
    15  H    0.152506
    16  H    0.151279
    17  C   -0.140986
    18  H    0.126305
    19  H    0.133444
    20  N   -0.559072
    21  H    0.245353
    22  H    0.223998
 Sum of Mulliken charges =  -0.00000
 Mulliken charges with hydrogens summed into heavy atoms:
               1
     1  C   -0.019579
     2  C   -0.097835
     3  C    0.078990
     4  C   -0.066055
     5  C    0.167091
     6  C    0.189162
    10  O   -0.091914
    12  O   -0.154961
    14  C   -0.033939
    17  C    0.118763
    20  N   -0.089721
 Electronic spatial extent (au):  <R**2>=           2023.3645
 Charge=             -0.0000 electrons
 Dipole moment (field-independent basis, Debye):
    X=              0.9517    Y=             -1.3981    Z=              0.7251  Tot=              1.8402
 Quadrupole moment (field-independent basis, Debye-Ang):
   XX=            -59.2983   YY=            -63.6064   ZZ=            -65.8930
   XY=            -10.6977   XZ=             -0.0206   YZ=             -0.5589
 Traceless Quadrupole moment (field-independent basis, Debye-Ang):
   XX=              3.6343   YY=             -0.6739   ZZ=             -2.9604
   XY=            -10.6977   XZ=             -0.0206   YZ=             -0.5589
 Octapole moment (field-independent basis, Debye-Ang**2):
  XXX=             45.9866  YYY=            -15.0693  ZZZ=             15.8850  XYY=             20.4613
  XXY=             -0.5012  XXZ=             13.7578  XZZ=             -7.0096  YZZ=              0.4332
  YYZ=             -0.0836  XYZ=             -1.4367
 Hexadecapole moment (field-independent basis, Debye-Ang**3):
 XXXX=          -1719.1484 YYYY=           -503.8367 ZZZZ=           -226.0452 XXXY=            -84.5525
 XXXZ=             -8.9816 YYYX=            -55.2198 YYYZ=             -2.6877 ZZZX=            -21.5453
 ZZZY=             -7.9197 XXYY=           -368.3834 XXZZ=           -315.6969 YYZZ=           -128.1723
 XXYZ=              2.8364 YYXZ=             14.6390 ZZXY=              9.4819
 N-N= 6.067697252707D+02 E-N=-2.419254614403D+03  KE= 5.142684082197D+02
 Unable to Open any file for archive entry.
 1\1\GINC-BIO3-HORSEA-12U\FOpt\RM062X\def2TZVP\C8H11N1O2\VIP13T32\01-Ap
 r-2023\0\\# opt m062x/def2tzvp\\Title Card Required\\0,1\C,1.487032458
 6,11.1628582071,106.5980171003\C,1.0606621043,11.1562359742,105.272914
 2863\C,-0.1650749494,10.6024155885,104.926387306\C,-0.9608695449,10.05
 08842075,105.9310136546\C,-0.5468202064,10.0554832652,107.2493081323\C
 ,0.6878252346,10.6172802175,107.5817059056\H,2.4433855408,11.598950255
 1,106.8651205733\H,1.6920545258,11.5811597833,104.5030175388\H,-1.9248
 751959,9.6133391108,105.6990683147\O,-1.3368347508,9.521756331,108.213
 8993164\H,-0.8912361714,9.6269215957,109.0635821032\O,1.0093019964,10.
 5776169175,108.9140951719\H,1.8566287983,11.0060783961,109.0632800829\
 C,-0.61146642,10.537871161,103.4891714311\H,-1.6833619112,10.737209223
 8,103.4253781731\H,-0.0914826449,11.3004377688,102.9071653842\C,-0.323
 2750881,9.1732212378,102.8636807419\H,-0.6804063714,9.1737986951,101.8
 320622905\H,-0.8941391314,8.4085328194,103.4082444613\N,1.1138397143,8
 .9243866594,102.8460760356\H,1.4686140732,8.8747706468,103.7950305273\
 H,1.3204979397,8.0387919384,102.4017814689\\Version=ES64L-G16RevC.01\S
 tate=1-A\HF=-516.6582468\RMSD=4.651e-09\RMSF=3.743e-06\Dipole=0.626334
 8,0.0218122,0.3624483\Quadrupole=-0.1719212,-1.1129799,1.2849011,1.557
 2347,7.1531204,3.8180196\PG=C01 [X(C8H11N1O2)]\\@
 The archive entry for this job was punched.


 GOD DOES NOT PLAY WITH DICE.
               -- A. EINSTEIN
 Job cpu time:       0 days 11 hours  7 minutes  8.0 seconds.
 Elapsed time:       0 days  0 hours 44 minutes 21.6 seconds.
 File lengths (MBytes):  RWF=    107 Int=      0 D2E=      0 Chk=     13 Scr=      1
 Normal termination of Gaussian 16 at Sat Apr  1 17:14:25 2023.
